<?xml version="1.0" encoding="ISO-8859-1"?>
<modeling>
 <generator>
  <i name="program" type="string">vasp</i>
  <i name="version" type="string">4.6.21 </i>
  <i name="subversion" type="string"> 23Feb03 complex  parallel</i>
  <i name="platform" type="string">LinuxPgi</i>
  <i name="date" type="string">2007 03 27</i>
  <i name="time" type="string">14:35:29</i>
 </generator>
 <incar>
  <i type="string" name="SYSTEM"> V15Co</i>
  <i type="int" name="ISTART">     1</i>
  <i type="string" name="PREC">accurate</i>
  <i type="string" name="ALGO"> Normal</i>
  <i type="int" name="ICHARG">     1</i>
  <i name="EDIFF">      0.00000100</i>
  <i name="EDIFFG">     -0.00100000</i>
  <i type="int" name="IBRION">     2</i>
  <i type="int" name="NSW">    20</i>
  <i type="int" name="ISIF">     0</i>
  <i name="ENCUT">    320.00000000</i>
  <i type="logical" name="LREAL"> F  </i>
  <i type="logical" name="LPLANE"> T  </i>
  <i type="int" name="ISMEAR">     1</i>
  <i name="SIGMA">      0.20000000</i>
  <i type="int" name="NSIM">     4</i>
  <i type="logical" name="LSCALU"> F  </i>
 </incar>
 <kpoints>
  <generation param="Monkhorst-Pack">
   <v type="int" name="divisions">       8       8       8</v>
   <v name="usershift">      0.00000000      0.00000000      0.00000000</v>
   <v name="genvec1">      0.12500000      0.00000000      0.00000000</v>
   <v name="genvec2">      0.00000000      0.12500000      0.00000000</v>
   <v name="genvec3">      0.00000000      0.00000000      0.12500000</v>
   <v name="shift">      0.50000000      0.50000000      0.50000000</v>
  </generation>
  <varray name="kpointlist" >
   <v>       0.06250000      0.06250000      0.06250000</v>
   <v>       0.18750000      0.06250000      0.06250000</v>
   <v>       0.31250000      0.06250000      0.06250000</v>
   <v>       0.43750000      0.06250000      0.06250000</v>
   <v>       0.18750000      0.18750000      0.06250000</v>
   <v>       0.31250000      0.18750000      0.06250000</v>
   <v>       0.43750000      0.18750000      0.06250000</v>
   <v>       0.31250000      0.31250000      0.06250000</v>
   <v>       0.43750000      0.31250000      0.06250000</v>
   <v>       0.43750000      0.43750000      0.06250000</v>
   <v>       0.18750000      0.18750000      0.18750000</v>
   <v>       0.31250000      0.18750000      0.18750000</v>
   <v>       0.43750000      0.18750000      0.18750000</v>
   <v>       0.31250000      0.31250000      0.18750000</v>
   <v>       0.43750000      0.31250000      0.18750000</v>
   <v>       0.43750000      0.43750000      0.18750000</v>
   <v>       0.31250000      0.31250000      0.31250000</v>
   <v>       0.43750000      0.31250000      0.31250000</v>
   <v>       0.43750000      0.43750000      0.31250000</v>
   <v>       0.43750000      0.43750000      0.43750000</v>
  </varray>
  <varray name="weights" >
   <v>       0.01562500</v>
   <v>       0.04687500</v>
   <v>       0.04687500</v>
   <v>       0.04687500</v>
   <v>       0.04687500</v>
   <v>       0.09375000</v>
   <v>       0.09375000</v>
   <v>       0.04687500</v>
   <v>       0.09375000</v>
   <v>       0.04687500</v>
   <v>       0.01562500</v>
   <v>       0.04687500</v>
   <v>       0.04687500</v>
   <v>       0.04687500</v>
   <v>       0.09375000</v>
   <v>       0.04687500</v>
   <v>       0.01562500</v>
   <v>       0.04687500</v>
   <v>       0.04687500</v>
   <v>       0.01562500</v>
  </varray>
 </kpoints>
 <parameters>
  <separator name="general" >
   <i type="string" name="SYSTEM">V15Co</i>
   <i type="logical" name="LCOMPAT"> F  </i>
  </separator>
  <separator name="electronic" >
   <i type="string" name="PREC">accura</i>
   <i name="ENMAX">    320.00000000</i>
   <i name="ENAUG">    526.56800000</i>
   <i name="EDIFF">      0.00000100</i>
   <i type="int" name="IALGO">    38</i>
   <i type="int" name="IWAVPR">    11</i>
   <i type="int" name="NBANDS">   122</i>
   <i name="NELECT">    204.00000000</i>
   <separator name="electronic smearing" >
    <i type="int" name="ISMEAR">     1</i>
    <i name="SIGMA">      0.20000000</i>
   </separator>
   <separator name="electronic projectors" >
    <i type="logical" name="LREAL"> F  </i>
    <v name="ROPT">      0.00000000      0.00000000</v>
    <i type="int" name="LMAXPAW">  -100</i>
    <i type="int" name="LMAXMIX">     2</i>
   </separator>
   <separator name="electronic startup" >
    <i type="int" name="ISTART">     1</i>
    <i type="int" name="ICHARG">     1</i>
    <i type="int" name="INIWAV">     1</i>
   </separator>
   <separator name="electronic spin" >
    <i type="int" name="ISPIN">     1</i>
    <i type="logical" name="LNONCOLLINEAR"> F  </i>
    <v name="MAGMOM">      1.00000000      1.00000000      1.00000000      1.00000000      1.00000000      1.00000000      1.00000000      1.00000000      1.00000000      1.00000000      1.00000000      1.00000000      1.00000000      1.00000000      1.00000000      1.00000000</v>
    <i name="NUPDOWN">     -1.00000000</i>
    <i type="logical" name="LSORBIT"> F  </i>
    <v name="SAXIS">      0.00000000      0.00000000      1.00000000</v>
    <i type="logical" name="LSPIRAL"> F  </i>
    <v name="QSPIRAL">      0.00000000      0.00000000      0.00000000</v>
    <i type="logical" name="LZEROZ"> F  </i>
   </separator>
   <separator name="electronic exchange-correlation" >
    <i type="string" name="GGA">--</i>
    <i type="int" name="VOSKOWN">     0</i>
    <i type="logical" name="LASPH"> F  </i>
    <i type="logical" name="LMETAGGA"> F  </i>
    <i type="string" name="GGA2">--</i>
   </separator>
   <separator name="electronic convergence" >
    <i type="int" name="NELM">    60</i>
    <i type="int" name="NELMDL">     0</i>
    <i type="int" name="NELMIN">     2</i>
    <i name="ENINI">    320.00000000</i>
    <separator name="electronic convergence detail" >
     <i type="logical" name="LDIAG"> T  </i>
     <i name="WEIMIN">      0.00100000</i>
     <i name="EBREAK">      0.00000000</i>
     <i name="DEPER">      0.30000000</i>
     <i type="int" name="NRMM">     4</i>
     <i name="TIME">      0.10000000</i>
    </separator>
   </separator>
   <separator name="electronic mixer" >
    <i name="AMIX">      0.40000000</i>
    <i name="BMIX">      1.00000000</i>
    <i name="AMIN">      0.10000000</i>
    <i name="AMIX_MAG">      1.60000000</i>
    <i name="BMIX_MAG">      1.00000000</i>
    <separator name="electronic mixer details" >
     <i type="int" name="IMIX">     4</i>
     <i type="int" name="MAXMIX">   -45</i>
     <i name="WC">    100.00000000</i>
     <i type="int" name="INIMIX">     1</i>
     <i type="int" name="MIXPRE">     1</i>
     <i type="int" name="MREMOVE">     5</i>
    </separator>
   </separator>
   <separator name="electronic dipolcorrection" >
    <i type="int" name="IDIPOL">     0</i>
    <i type="logical" name="LDIPOL"> F  </i>
    <v name="DIPOL">   -100.00000000</v>
    <i name="EFIELD">      0.00000000</i>
   </separator>
  </separator>
  <separator name="grids" >
   <i type="int" name="NGX">    36</i>
   <i type="int" name="NGY">    36</i>
   <i type="int" name="NGZ">    36</i>
   <i type="int" name="NGXF">    72</i>
   <i type="int" name="NGYF">    72</i>
   <i type="int" name="NGZF">    72</i>
   <i type="logical" name="ADDGRID"> F  </i>
  </separator>
  <separator name="ionic" >
   <i type="int" name="NSW">    20</i>
   <i type="int" name="IBRION">     2</i>
   <i type="int" name="ISIF">     0</i>
   <i name="PSTRESS">      0.00000000</i>
   <i name="EDIFFG">     -0.00100000</i>
   <i type="int" name="NFREE">     1</i>
   <i name="POTIM">      0.50000000</i>
   <i name="SMASS">     -3.00000000</i>
  </separator>
  <separator name="ionic md" >
   <i name="TEBEG">      0.00010000</i>
   <i name="TEEND">      0.00010000</i>
   <i type="int" name="NBLOCK">     1</i>
   <i type="int" name="KBLOCK">    20</i>
   <i type="int" name="NPACO">   256</i>
   <i name="APACO">     16.00000000</i>
  </separator>
  <separator name="symmetry" >
   <i type="int" name="ISYM">     2</i>
   <i name="SYMPREC">      0.00001000</i>
  </separator>
  <separator name="dos" >
   <i type="logical" name="LORBIT"> F  </i>
   <v name="RWIGS">     -1.00000000     -1.00000000</v>
   <i type="int" name="NEDOS">   301</i>
   <i name="EMIN">     10.00000000</i>
   <i name="EMAX">    -10.00000000</i>
  </separator>
  <separator name="writing" >
   <i type="int" name="NWRITE">     2</i>
   <i type="logical" name="LWAVE"> T  </i>
   <i type="logical" name="LCHARG"> T  </i>
   <i type="logical" name="LPARD"> F  </i>
   <i type="logical" name="LVTOT"> F  </i>
   <i type="logical" name="LELF"> F  </i>
   <i type="logical" name="LOPTICS"> F  </i>
   <i name="STM">      0.00000000</i>
  </separator>
  <separator name="performance" >
   <i type="int" name="NPAR">     8</i>
   <i type="int" name="NSIM">     4</i>
   <i type="int" name="NBLK">   256</i>
   <i type="logical" name="LPLANE"> T  </i>
   <i type="logical" name="LCRITICAL_MEM"> F  </i>
   <i type="logical" name="LSCALAPACK"> F  </i>
   <i type="logical" name="LSCALU"> F  </i>
   <i type="logical" name="LASYNC"> F  </i>
  </separator>
  <separator name="miscellaneous" >
   <i type="int" name="IDIOT">     3</i>
   <i type="logical" name="LMUSIC"> F  </i>
   <v name="POMASS">     50.94100000     58.93300000</v>
   <i type="logical" name="LCORR"> T  </i>
  </separator>
  <i type="logical" name="LREAL_COMPAT"> F  </i>
  <i type="logical" name="GGA_COMPAT"> T  </i>
  <i type="logical" name="LBERRY"> F  </i>
  <i type="int" name="ICORELEVEL">     0</i>
  <i type="logical" name="LDAU"> F  </i>
  <i type="int" name="I_CONSTRAINED_M">     0</i>
 </parameters>
 <atominfo>
  <atoms>      16</atoms>
  <types>       2</types>
  <array name="atoms" >
   <dimension dim="1">ion</dimension>
   <field type="string">element</field>
   <field type="int">atomtype</field>
   <set>
    <rc><c>V </c><c>   1</c></rc>
    <rc><c>V </c><c>   1</c></rc>
    <rc><c>V </c><c>   1</c></rc>
    <rc><c>V </c><c>   1</c></rc>
    <rc><c>V </c><c>   1</c></rc>
    <rc><c>V </c><c>   1</c></rc>
    <rc><c>V </c><c>   1</c></rc>
    <rc><c>V </c><c>   1</c></rc>
    <rc><c>V </c><c>   1</c></rc>
    <rc><c>V </c><c>   1</c></rc>
    <rc><c>V </c><c>   1</c></rc>
    <rc><c>V </c><c>   1</c></rc>
    <rc><c>V </c><c>   1</c></rc>
    <rc><c>V </c><c>   1</c></rc>
    <rc><c>V </c><c>   1</c></rc>
    <rc><c>Co</c><c>   2</c></rc>
   </set>
  </array>
  <array name="atomtypes" >
   <dimension dim="1">type</dimension>
   <field type="int">atomspertype</field>
   <field type="string">element</field>
   <field>mass</field>
   <field>valence</field>
   <field type="string">pseudopotential</field>
   <set>
    <rc><c>  15</c><c>V </c><c>     50.94100000</c><c>     13.00000000</c><c> PAW_GGA V_sv 14Sep2000                 </c></rc>
    <rc><c>   1</c><c>Co</c><c>     58.93300000</c><c>      9.00000000</c><c> PAW_GGA Co 03Mar1998                   </c></rc>
   </set>
  </array>
 </atominfo>
 <structure name="initialpos" >
  <crystal>
   <varray name="basis" >
    <v>       5.95620000      0.00000000      0.00000000</v>
    <v>       0.00000000      5.95620000      0.00000000</v>
    <v>       0.00000000      0.00000000      5.95620000</v>
   </varray>
   <i name="volume">    211.30404789</i>
   <varray name="rec_basis" >
    <v>       0.16789228      0.00000000      0.00000000</v>
    <v>       0.00000000      0.16789228      0.00000000</v>
    <v>       0.00000000      0.00000000      0.16789228</v>
   </varray>
  </crystal>
  <varray name="positions" >
   <v>       0.25135200      0.25135200      0.25135200</v>
   <v>       0.74864800      0.74864800      0.25135200</v>
   <v>       0.74864800      0.25135200      0.74864800</v>
   <v>       0.25135200      0.74864800      0.74864800</v>
   <v>       0.25135200      0.25135200      0.74864800</v>
   <v>       0.74864800      0.74864800      0.74864800</v>
   <v>       0.25135200      0.74864800      0.25135200</v>
   <v>       0.74864800      0.25135200      0.25135200</v>
   <v>       0.50000000      0.50000000      0.00000000</v>
   <v>       0.00000000      0.50000000      0.50000000</v>
   <v>       0.50000000      0.00000000      0.50000000</v>
   <v>       0.50000000      0.00000000      0.00000000</v>
   <v>       0.00000000      0.50000000      0.00000000</v>
   <v>       0.00000000      0.00000000      0.50000000</v>
   <v>       0.00000000      0.00000000      0.00000000</v>
   <v>       0.50000000      0.50000000      0.50000000</v>
  </varray>
 </structure>
 <calculation>
  <scstep>
   <time name="dav">   24.01   27.14</time>
   <time name="total">   25.31   28.62</time>
   <energy>
    <i name="alphaZ">   2223.83886463</i>
    <i name="ewald"> -22938.74674653</i>
    <i name="hartreedc">  -6050.41627263</i>
    <i name="XCdc">   1065.51053708</i>
    <i name="pawpsdc">  21847.73176941</i>
    <i name="pawaedc"> -22191.23661375</i>
    <i name="eentropy">     -0.00112812</i>
    <i name="bandstr">  -4211.71276864</i>
    <i name="atom">  30112.81450969</i>
    <i name="e_fr_energy">   -142.21784887</i>
    <i name="e_wo_entrp">   -142.21672075</i>
    <i name="e_0_energy">   -142.21747283</i>
   </energy>
  </scstep>
  <scstep>
   <time name="dav">   27.60   31.63</time>
   <time name="total">   28.88   33.17</time>
   <energy>
    <i name="e_fr_energy">   -142.24837125</i>
    <i name="e_wo_entrp">   -142.24902354</i>
    <i name="e_0_energy">   -142.24858868</i>
   </energy>
  </scstep>
  <scstep>
   <time name="dav">   27.75   32.16</time>
   <time name="total">   29.05   33.70</time>
   <energy>
    <i name="e_fr_energy">   -142.22193703</i>
    <i name="e_wo_entrp">   -142.21971964</i>
    <i name="e_0_energy">   -142.22119790</i>
   </energy>
  </scstep>
  <scstep>
   <time name="dav">   30.19   34.46</time>
   <time name="total">   31.48   35.93</time>
   <energy>
    <i name="e_fr_energy">   -142.22425135</i>
    <i name="e_wo_entrp">   -142.22386432</i>
    <i name="e_0_energy">   -142.22412234</i>
   </energy>
  </scstep>
  <scstep>
   <time name="dav">   29.43   34.19</time>
   <time name="total">   30.79   35.78</time>
   <energy>
    <i name="e_fr_energy">   -142.22088370</i>
    <i name="e_wo_entrp">   -142.21879539</i>
    <i name="e_0_energy">   -142.22018759</i>
   </energy>
  </scstep>
  <scstep>
   <time name="dav">   30.16   33.86</time>
   <time name="total">   31.50   35.37</time>
   <energy>
    <i name="e_fr_energy">   -142.22097260</i>
    <i name="e_wo_entrp">   -142.21920712</i>
    <i name="e_0_energy">   -142.22038410</i>
   </energy>
  </scstep>
  <scstep>
   <time name="dav">   29.36   33.81</time>
   <time name="total">   30.65   35.38</time>
   <energy>
    <i name="e_fr_energy">   -142.22075303</i>
    <i name="e_wo_entrp">   -142.21892772</i>
    <i name="e_0_energy">   -142.22014459</i>
   </energy>
  </scstep>
  <scstep>
   <time name="dav">   28.14   32.76</time>
   <time name="total">   29.46   34.27</time>
   <energy>
    <i name="e_fr_energy">   -142.22067079</i>
    <i name="e_wo_entrp">   -142.21887303</i>
    <i name="e_0_energy">   -142.22007154</i>
   </energy>
  </scstep>
  <scstep>
   <time name="dav">   30.08   33.87</time>
   <time name="total">   31.41   35.35</time>
   <energy>
    <i name="e_fr_energy">   -142.22066175</i>
    <i name="e_wo_entrp">   -142.21885234</i>
    <i name="e_0_energy">   -142.22005862</i>
   </energy>
  </scstep>
  <scstep>
   <time name="dav">   25.92   30.74</time>
   <time name="total">   27.28   32.24</time>
   <energy>
    <i name="e_fr_energy">   -142.22065608</i>
    <i name="e_wo_entrp">   -142.21883589</i>
    <i name="e_0_energy">   -142.22004935</i>
   </energy>
  </scstep>
  <scstep>
   <time name="dav">   18.30   20.76</time>
   <time name="total">   18.48   21.07</time>
   <energy>
    <i name="alphaZ">   2223.83886463</i>
    <i name="ewald"> -22938.74674653</i>
    <i name="hartreedc">  -6039.82291115</i>
    <i name="XCdc">   1064.98227432</i>
    <i name="pawpsdc">  21856.67323739</i>
    <i name="pawaedc"> -22200.26705309</i>
    <i name="eentropy">     -0.00181868</i>
    <i name="bandstr">  -4221.69101175</i>
    <i name="atom">  30112.81450969</i>
    <i name="e_fr_energy">   -142.22065518</i>
    <i name="e_wo_entrp">   -142.21883650</i>
    <i name="e_0_energy">   -142.22004895</i>
   </energy>
  </scstep>
  <structure>
   <crystal>
    <varray name="basis" >
     <v>       5.95620000      0.00000000      0.00000000</v>
     <v>       0.00000000      5.95620000      0.00000000</v>
     <v>       0.00000000      0.00000000      5.95620000</v>
    </varray>
    <i name="volume">    211.30404789</i>
    <varray name="rec_basis" >
     <v>       0.16789228      0.00000000      0.00000000</v>
     <v>       0.00000000      0.16789228      0.00000000</v>
     <v>       0.00000000      0.00000000      0.16789228</v>
    </varray>
   </crystal>
   <varray name="positions" >
    <v>       0.25135200      0.25135200      0.25135200</v>
    <v>       0.74864800      0.74864800      0.25135200</v>
    <v>       0.74864800      0.25135200      0.74864800</v>
    <v>       0.25135200      0.74864800      0.74864800</v>
    <v>       0.25135200      0.25135200      0.74864800</v>
    <v>       0.74864800      0.74864800      0.74864800</v>
    <v>       0.25135200      0.74864800      0.25135200</v>
    <v>       0.74864800      0.25135200      0.25135200</v>
    <v>       0.50000000      0.50000000      0.00000000</v>
    <v>       0.00000000      0.50000000      0.50000000</v>
    <v>       0.50000000      0.00000000      0.50000000</v>
    <v>       0.50000000      0.00000000      0.00000000</v>
    <v>       0.00000000      0.50000000      0.00000000</v>
    <v>       0.00000000      0.00000000      0.50000000</v>
    <v>       0.00000000      0.00000000      0.00000000</v>
    <v>       0.50000000      0.50000000      0.50000000</v>
   </varray>
  </structure>
  <varray name="forces" >
   <v>      -0.00091681     -0.00091681     -0.00091681</v>
   <v>       0.00091681      0.00091681     -0.00091681</v>
   <v>       0.00091681     -0.00091681      0.00091681</v>
   <v>      -0.00091681      0.00091681      0.00091681</v>
   <v>      -0.00091681     -0.00091681      0.00091681</v>
   <v>       0.00091681      0.00091681      0.00091681</v>
   <v>      -0.00091681      0.00091681     -0.00091681</v>
   <v>       0.00091681     -0.00091681     -0.00091681</v>
   <v>       0.00000000      0.00000000      0.00000000</v>
   <v>       0.00000000      0.00000000      0.00000000</v>
   <v>       0.00000000      0.00000000      0.00000000</v>
   <v>       0.00000000      0.00000000      0.00000000</v>
   <v>       0.00000000      0.00000000      0.00000000</v>
   <v>       0.00000000      0.00000000      0.00000000</v>
   <v>       0.00000000      0.00000000      0.00000000</v>
   <v>       0.00000000      0.00000000      0.00000000</v>
  </varray>
  <energy>
   <i name="e_fr_energy">   -142.22065518</i>
   <i name="e_wo_entrp">   -142.22004895</i>
   <i name="e_0_energy">     -0.00181868</i>
  </energy>
 </calculation>
 <calculation>
  <scstep>
   <time name="dav">   24.77   27.93</time>
   <time name="total">   26.09   29.47</time>
   <energy>
    <i name="alphaZ">   2223.83886463</i>
    <i name="ewald"> -22938.70731654</i>
    <i name="hartreedc">  -6039.85554082</i>
    <i name="XCdc">   1064.98212095</i>
    <i name="pawpsdc">  21856.68933136</i>
    <i name="pawaedc"> -22200.28107717</i>
    <i name="eentropy">     -0.00184818</i>
    <i name="bandstr">  -4221.69969319</i>
    <i name="atom">  30112.81450969</i>
    <i name="e_fr_energy">   -142.22064927</i>
    <i name="e_wo_entrp">   -142.21880109</i>
    <i name="e_0_energy">   -142.22003321</i>
   </energy>
  </scstep>
  <scstep>
   <time name="dav">   28.86   33.57</time>
   <time name="total">   30.25   35.12</time>
   <energy>
    <i name="e_fr_energy">   -142.22065984</i>
    <i name="e_wo_entrp">   -142.21889068</i>
    <i name="e_0_energy">   -142.22007012</i>
   </energy>
  </scstep>
  <scstep>
   <time name="dav">   29.86   34.84</time>
   <time name="total">   31.16   36.48</time>
   <energy>
    <i name="e_fr_energy">   -142.22065605</i>
    <i name="e_wo_entrp">   -142.21881864</i>
    <i name="e_0_energy">   -142.22004358</i>
   </energy>
  </scstep>
  <scstep>
   <time name="dav">   20.97   24.50</time>
   <time name="total">   21.15   24.78</time>
   <energy>
    <i name="alphaZ">   2223.83886463</i>
    <i name="ewald"> -22938.70731654</i>
    <i name="hartreedc">  -6039.85231507</i>
    <i name="XCdc">   1064.98193637</i>
    <i name="pawpsdc">  21856.68155117</i>
    <i name="pawaedc"> -22200.27143641</i>
    <i name="eentropy">     -0.00183656</i>
    <i name="bandstr">  -4221.70461293</i>
    <i name="atom">  30112.81450969</i>
    <i name="e_fr_energy">   -142.22065564</i>
    <i name="e_wo_entrp">   -142.21881908</i>
    <i name="e_0_energy">   -142.22004346</i>
   </energy>
  </scstep>
  <structure>
   <crystal>
    <varray name="basis" >
     <v>       5.95620000      0.00000000      0.00000000</v>
     <v>       0.00000000      5.95620000      0.00000000</v>
     <v>       0.00000000      0.00000000      5.95620000</v>
    </varray>
    <i name="volume">    211.30404789</i>
    <varray name="rec_basis" >
     <v>       0.16789228      0.00000000      0.00000000</v>
     <v>       0.00000000      0.16789228      0.00000000</v>
     <v>       0.00000000      0.00000000      0.16789228</v>
    </varray>
   </crystal>
   <varray name="positions" >
    <v>       0.25134457      0.25134457      0.25134457</v>
    <v>       0.74865543      0.74865543      0.25134457</v>
    <v>       0.74865543      0.25134457      0.74865543</v>
    <v>       0.25134457      0.74865543      0.74865543</v>
    <v>       0.25134457      0.25134457      0.74865543</v>
    <v>       0.74865543      0.74865543      0.74865543</v>
    <v>       0.25134457      0.74865543      0.25134457</v>
    <v>       0.74865543      0.25134457      0.25134457</v>
    <v>       0.50000000      0.50000000      0.00000000</v>
    <v>       0.00000000      0.50000000      0.50000000</v>
    <v>       0.50000000      0.00000000      0.50000000</v>
    <v>       0.50000000      0.00000000      0.00000000</v>
    <v>       0.00000000      0.50000000      0.00000000</v>
    <v>       0.00000000      0.00000000      0.50000000</v>
    <v>       0.00000000      0.00000000      0.00000000</v>
    <v>       0.50000000      0.50000000      0.50000000</v>
   </varray>
  </structure>
  <varray name="forces" >
   <v>      -0.00026255     -0.00026255     -0.00026255</v>
   <v>       0.00026255      0.00026255     -0.00026255</v>
   <v>       0.00026255     -0.00026255      0.00026255</v>
   <v>      -0.00026255      0.00026255      0.00026255</v>
   <v>      -0.00026255     -0.00026255      0.00026255</v>
   <v>       0.00026255      0.00026255      0.00026255</v>
   <v>      -0.00026255      0.00026255     -0.00026255</v>
   <v>       0.00026255     -0.00026255     -0.00026255</v>
   <v>       0.00000000      0.00000000      0.00000000</v>
   <v>       0.00000000      0.00000000      0.00000000</v>
   <v>       0.00000000      0.00000000      0.00000000</v>
   <v>       0.00000000      0.00000000      0.00000000</v>
   <v>       0.00000000      0.00000000      0.00000000</v>
   <v>       0.00000000      0.00000000      0.00000000</v>
   <v>       0.00000000      0.00000000      0.00000000</v>
   <v>       0.00000000      0.00000000      0.00000000</v>
  </varray>
  <energy>
   <i name="e_fr_energy">   -142.22065564</i>
   <i name="e_wo_entrp">   -142.22004346</i>
   <i name="e_0_energy">     -0.00183656</i>
  </energy>
  <eigenvalues>
   <array>
    <dimension dim="1">band</dimension>
    <dimension dim="2">kpoint</dimension>
    <dimension dim="3">spin</dimension>
    <field>eigene</field>
    <field>occ</field>
    <set>
     <set comment="spin 1">
      <set comment="kpoint 1">
       <r> -57.7249  1.0000</r>
       <r> -57.5888  1.0000</r>
       <r> -57.5888  1.0000</r>
       <r> -57.5881  1.0000</r>
       <r> -57.5686  1.0000</r>
       <r> -57.5686  1.0000</r>
       <r> -57.5686  1.0000</r>
       <r> -57.5515  1.0000</r>
       <r> -57.5224  1.0000</r>
       <r> -57.4929  1.0000</r>
       <r> -57.4929  1.0000</r>
       <r> -57.4514  1.0000</r>
       <r> -57.4221  1.0000</r>
       <r> -57.4221  1.0000</r>
       <r> -57.3550  1.0000</r>
       <r> -32.0816  1.0000</r>
       <r> -32.0774  1.0000</r>
       <r> -32.0774  1.0000</r>
       <r> -32.0428  1.0000</r>
       <r> -32.0428  1.0000</r>
       <r> -32.0422  1.0000</r>
       <r> -31.7859  1.0000</r>
       <r> -31.7859  1.0000</r>
       <r> -31.7822  1.0000</r>
       <r> -31.7453  1.0000</r>
       <r> -31.7046  1.0000</r>
       <r> -31.7046  1.0000</r>
       <r> -31.7043  1.0000</r>
       <r> -31.6826  1.0000</r>
       <r> -31.6826  1.0000</r>
       <r> -31.5955  1.0000</r>
       <r> -31.5902  1.0000</r>
       <r> -31.5902  1.0000</r>
       <r> -31.5367  1.0000</r>
       <r> -31.5367  1.0000</r>
       <r> -31.5325  1.0000</r>
       <r> -31.5153  1.0000</r>
       <r> -31.5153  1.0000</r>
       <r> -31.5030  1.0000</r>
       <r> -31.5005  1.0000</r>
       <r> -31.4862  1.0000</r>
       <r> -31.4731  1.0000</r>
       <r> -31.4731  1.0000</r>
       <r> -31.4548  1.0000</r>
       <r> -31.4548  1.0000</r>
       <r> -31.4178  1.0000</r>
       <r> -31.4178  1.0000</r>
       <r> -31.4102  1.0000</r>
       <r> -31.3840  1.0000</r>
       <r> -31.3732  1.0000</r>
       <r> -31.3732  1.0000</r>
       <r> -31.2493  1.0000</r>
       <r> -31.2493  1.0000</r>
       <r> -31.2489  1.0000</r>
       <r> -31.1418  1.0000</r>
       <r> -31.1305  1.0000</r>
       <r> -31.1305  1.0000</r>
       <r> -31.1273  1.0000</r>
       <r> -31.1273  1.0000</r>
       <r> -31.1232  1.0000</r>
       <r>  -0.8595  1.0000</r>
       <r>   2.1444  1.0000</r>
       <r>   2.5052  1.0000</r>
       <r>   2.5052  1.0000</r>
       <r>   2.5319  1.0000</r>
       <r>   2.5372  1.0000</r>
       <r>   2.5372  1.0000</r>
       <r>   2.5964  1.0000</r>
       <r>   2.6101  1.0000</r>
       <r>   2.6101  1.0000</r>
       <r>   2.6895  1.0000</r>
       <r>   2.6895  1.0000</r>
       <r>   3.0089  1.0000</r>
       <r>   3.0760  1.0000</r>
       <r>   3.0760  1.0000</r>
       <r>   4.0046  1.0000</r>
       <r>   4.0162  1.0000</r>
       <r>   4.0162  1.0000</r>
       <r>   4.4494  1.0000</r>
       <r>   4.5172  1.0000</r>
       <r>   4.5172  1.0000</r>
       <r>   4.5706  1.0000</r>
       <r>   4.5706  1.0000</r>
       <r>   4.6078  1.0000</r>
       <r>   4.6233  1.0000</r>
       <r>   4.6233  1.0000</r>
       <r>   4.6680  1.0000</r>
       <r>   4.6680  1.0000</r>
       <r>   4.7074  1.0000</r>
       <r>   4.9033  1.0000</r>
       <r>   5.1984  1.0001</r>
       <r>   5.1984  1.0001</r>
       <r>   5.4149  1.0102</r>
       <r>   5.6903  0.8938</r>
       <r>   5.7326  0.7655</r>
       <r>   5.7326  0.7655</r>
       <r>   6.2794 -0.0018</r>
       <r>   6.2918 -0.0014</r>
       <r>   6.2918 -0.0014</r>
       <r>   6.4242  0.0000</r>
       <r>   6.4242  0.0000</r>
       <r>   6.4801  0.0000</r>
       <r>   6.4801  0.0000</r>
       <r>   6.5615  0.0000</r>
       <r>   6.5773  0.0000</r>
       <r>   6.7017  0.0000</r>
       <r>   6.7017  0.0000</r>
       <r>   6.7933  0.0000</r>
       <r>   6.7933  0.0000</r>
       <r>   6.8077  0.0000</r>
       <r>   7.1505  0.0000</r>
       <r>   7.1835  0.0000</r>
       <r>   7.1835  0.0000</r>
       <r>   7.2770  0.0000</r>
       <r>   7.3735  0.0000</r>
       <r>   7.3735  0.0000</r>
       <r>   7.5218  0.0000</r>
       <r>   7.5218  0.0000</r>
       <r>   7.5989  0.0000</r>
       <r>   7.7762  0.0000</r>
       <r>   7.9514  0.0000</r>
       <r>   7.9514  0.0000</r>
       <r>   8.1411  0.0000</r>
       <r>   8.1451  0.0000</r>
       <r>   8.1451  0.0000</r>
       <r>   8.1981  0.0000</r>
       <r>   8.2231  0.0000</r>
       <r>   8.2231  0.0000</r>
      </set>
      <set comment="kpoint 2">
       <r> -57.7180  1.0000</r>
       <r> -57.6062  1.0000</r>
       <r> -57.5873  1.0000</r>
       <r> -57.5868  1.0000</r>
       <r> -57.5702  1.0000</r>
       <r> -57.5701  1.0000</r>
       <r> -57.5672  1.0000</r>
       <r> -57.5526  1.0000</r>
       <r> -57.5202  1.0000</r>
       <r> -57.4926  1.0000</r>
       <r> -57.4847  1.0000</r>
       <r> -57.4512  1.0000</r>
       <r> -57.4223  1.0000</r>
       <r> -57.4176  1.0000</r>
       <r> -57.3594  1.0000</r>
       <r> -32.0642  1.0000</r>
       <r> -32.0580  1.0000</r>
       <r> -32.0538  1.0000</r>
       <r> -32.0274  1.0000</r>
       <r> -32.0248  1.0000</r>
       <r> -32.0246  1.0000</r>
       <r> -31.8026  1.0000</r>
       <r> -31.7846  1.0000</r>
       <r> -31.7830  1.0000</r>
       <r> -31.7731  1.0000</r>
       <r> -31.7524  1.0000</r>
       <r> -31.7454  1.0000</r>
       <r> -31.7393  1.0000</r>
       <r> -31.7210  1.0000</r>
       <r> -31.6646  1.0000</r>
       <r> -31.6527  1.0000</r>
       <r> -31.6496  1.0000</r>
       <r> -31.5687  1.0000</r>
       <r> -31.5653  1.0000</r>
       <r> -31.5388  1.0000</r>
       <r> -31.5372  1.0000</r>
       <r> -31.5247  1.0000</r>
       <r> -31.5027  1.0000</r>
       <r> -31.4865  1.0000</r>
       <r> -31.4821  1.0000</r>
       <r> -31.4761  1.0000</r>
       <r> -31.4604  1.0000</r>
       <r> -31.4476  1.0000</r>
       <r> -31.4211  1.0000</r>
       <r> -31.4128  1.0000</r>
       <r> -31.4098  1.0000</r>
       <r> -31.4055  1.0000</r>
       <r> -31.3815  1.0000</r>
       <r> -31.3547  1.0000</r>
       <r> -31.3377  1.0000</r>
       <r> -31.3325  1.0000</r>
       <r> -31.2605  1.0000</r>
       <r> -31.2569  1.0000</r>
       <r> -31.2565  1.0000</r>
       <r> -31.1692  1.0000</r>
       <r> -31.1455  1.0000</r>
       <r> -31.1427  1.0000</r>
       <r> -31.1422  1.0000</r>
       <r> -31.1348  1.0000</r>
       <r> -31.1311  1.0000</r>
       <r>  -0.7020  1.0000</r>
       <r>   1.8602  1.0000</r>
       <r>   2.3448  1.0000</r>
       <r>   2.5342  1.0000</r>
       <r>   2.5693  1.0000</r>
       <r>   2.6074  1.0000</r>
       <r>   2.6244  1.0000</r>
       <r>   2.6566  1.0000</r>
       <r>   2.6693  1.0000</r>
       <r>   2.6822  1.0000</r>
       <r>   2.7712  1.0000</r>
       <r>   2.7801  1.0000</r>
       <r>   3.0732  1.0000</r>
       <r>   3.1131  1.0000</r>
       <r>   3.3310  1.0000</r>
       <r>   3.9754  1.0000</r>
       <r>   4.0174  1.0000</r>
       <r>   4.0198  1.0000</r>
       <r>   4.2559  1.0000</r>
       <r>   4.3256  1.0000</r>
       <r>   4.4555  1.0000</r>
       <r>   4.4621  1.0000</r>
       <r>   4.5370  1.0000</r>
       <r>   4.5949  1.0000</r>
       <r>   4.6454  1.0000</r>
       <r>   4.6613  1.0000</r>
       <r>   4.7166  1.0000</r>
       <r>   4.8049  1.0000</r>
       <r>   4.8493  1.0000</r>
       <r>   4.8638  1.0000</r>
       <r>   5.1062  1.0000</r>
       <r>   5.1893  1.0001</r>
       <r>   5.6059  1.0213</r>
       <r>   5.6274  1.0038</r>
       <r>   5.7268  0.7856</r>
       <r>   5.7457  0.7181</r>
       <r>   6.1386 -0.0187</r>
       <r>   6.1747 -0.0116</r>
       <r>   6.2011 -0.0078</r>
       <r>   6.2257 -0.0051</r>
       <r>   6.2437 -0.0037</r>
       <r>   6.3012 -0.0011</r>
       <r>   6.3253 -0.0006</r>
       <r>   6.5739  0.0000</r>
       <r>   6.5904  0.0000</r>
       <r>   6.6801  0.0000</r>
       <r>   6.7256  0.0000</r>
       <r>   6.7405  0.0000</r>
       <r>   6.8212  0.0000</r>
       <r>   6.8618  0.0000</r>
       <r>   6.9527  0.0000</r>
       <r>   6.9591  0.0000</r>
       <r>   6.9828  0.0000</r>
       <r>   7.0521  0.0000</r>
       <r>   7.0937  0.0000</r>
       <r>   7.2060  0.0000</r>
       <r>   7.2525  0.0000</r>
       <r>   7.7790  0.0000</r>
       <r>   7.7863  0.0000</r>
       <r>   7.8589  0.0000</r>
       <r>   8.0616  0.0000</r>
       <r>   8.0890  0.0000</r>
       <r>   8.1227  0.0000</r>
       <r>   8.1514  0.0000</r>
       <r>   8.2333  0.0000</r>
       <r>   8.2626  0.0000</r>
       <r>   8.3003  0.0000</r>
       <r>   8.3497  0.0000</r>
      </set>
      <set comment="kpoint 3">
       <r> -57.7047  1.0000</r>
       <r> -57.6305  1.0000</r>
       <r> -57.5845  1.0000</r>
       <r> -57.5841  1.0000</r>
       <r> -57.5730  1.0000</r>
       <r> -57.5730  1.0000</r>
       <r> -57.5648  1.0000</r>
       <r> -57.5549  1.0000</r>
       <r> -57.5187  1.0000</r>
       <r> -57.4923  1.0000</r>
       <r> -57.4762  1.0000</r>
       <r> -57.4508  1.0000</r>
       <r> -57.4227  1.0000</r>
       <r> -57.4084  1.0000</r>
       <r> -57.3677  1.0000</r>
       <r> -32.0265  1.0000</r>
       <r> -32.0224  1.0000</r>
       <r> -32.0160  1.0000</r>
       <r> -31.9995  1.0000</r>
       <r> -31.9913  1.0000</r>
       <r> -31.9882  1.0000</r>
       <r> -31.8438  1.0000</r>
       <r> -31.8272  1.0000</r>
       <r> -31.8195  1.0000</r>
       <r> -31.8157  1.0000</r>
       <r> -31.8088  1.0000</r>
       <r> -31.7754  1.0000</r>
       <r> -31.7715  1.0000</r>
       <r> -31.7395  1.0000</r>
       <r> -31.7026  1.0000</r>
       <r> -31.6868  1.0000</r>
       <r> -31.6399  1.0000</r>
       <r> -31.6067  1.0000</r>
       <r> -31.5938  1.0000</r>
       <r> -31.5532  1.0000</r>
       <r> -31.5278  1.0000</r>
       <r> -31.5117  1.0000</r>
       <r> -31.4973  1.0000</r>
       <r> -31.4965  1.0000</r>
       <r> -31.4800  1.0000</r>
       <r> -31.4472  1.0000</r>
       <r> -31.4200  1.0000</r>
       <r> -31.4186  1.0000</r>
       <r> -31.4031  1.0000</r>
       <r> -31.3926  1.0000</r>
       <r> -31.3806  1.0000</r>
       <r> -31.3454  1.0000</r>
       <r> -31.3261  1.0000</r>
       <r> -31.3123  1.0000</r>
       <r> -31.3038  1.0000</r>
       <r> -31.2856  1.0000</r>
       <r> -31.2802  1.0000</r>
       <r> -31.2648  1.0000</r>
       <r> -31.2609  1.0000</r>
       <r> -31.2107  1.0000</r>
       <r> -31.1745  1.0000</r>
       <r> -31.1697  1.0000</r>
       <r> -31.1676  1.0000</r>
       <r> -31.1543  1.0000</r>
       <r> -31.1496  1.0000</r>
       <r>  -0.3956  1.0000</r>
       <r>   1.2424  1.0000</r>
       <r>   2.4035  1.0000</r>
       <r>   2.5973  1.0000</r>
       <r>   2.6583  1.0000</r>
       <r>   2.6989  1.0000</r>
       <r>   2.7571  1.0000</r>
       <r>   2.7677  1.0000</r>
       <r>   2.8460  1.0000</r>
       <r>   2.8914  1.0000</r>
       <r>   2.9269  1.0000</r>
       <r>   2.9608  1.0000</r>
       <r>   3.1084  1.0000</r>
       <r>   3.1338  1.0000</r>
       <r>   3.3970  1.0000</r>
       <r>   3.8549  1.0000</r>
       <r>   3.8640  1.0000</r>
       <r>   3.9699  1.0000</r>
       <r>   4.0320  1.0000</r>
       <r>   4.0798  1.0000</r>
       <r>   4.4281  1.0000</r>
       <r>   4.4303  1.0000</r>
       <r>   4.5136  1.0000</r>
       <r>   4.5571  1.0000</r>
       <r>   4.7404  1.0000</r>
       <r>   4.7592  1.0000</r>
       <r>   4.8599  1.0000</r>
       <r>   4.8994  1.0000</r>
       <r>   5.0380  1.0000</r>
       <r>   5.0880  1.0000</r>
       <r>   5.1560  1.0000</r>
       <r>   5.2260  1.0002</r>
       <r>   5.4628  1.0193</r>
       <r>   5.5963  1.0266</r>
       <r>   5.6235  1.0076</r>
       <r>   5.7637  0.6478</r>
       <r>   5.8078  0.4638</r>
       <r>   5.8384  0.3381</r>
       <r>   5.9812 -0.0130</r>
       <r>   6.0135 -0.0310</r>
       <r>   6.0611 -0.0345</r>
       <r>   6.0944 -0.0287</r>
       <r>   6.1648 -0.0134</r>
       <r>   6.1948 -0.0086</r>
       <r>   6.2963 -0.0012</r>
       <r>   6.3397 -0.0004</r>
       <r>   6.4860  0.0000</r>
       <r>   6.5051  0.0000</r>
       <r>   6.7867  0.0000</r>
       <r>   6.8100  0.0000</r>
       <r>   6.9126  0.0000</r>
       <r>   6.9487  0.0000</r>
       <r>   7.0364  0.0000</r>
       <r>   7.2732  0.0000</r>
       <r>   7.3165  0.0000</r>
       <r>   7.3495  0.0000</r>
       <r>   7.3922  0.0000</r>
       <r>   7.7338  0.0000</r>
       <r>   7.7979  0.0000</r>
       <r>   7.9161  0.0000</r>
       <r>   7.9256  0.0000</r>
       <r>   8.0299  0.0000</r>
       <r>   8.2613  0.0000</r>
       <r>   8.3111  0.0000</r>
       <r>   8.3327  0.0000</r>
       <r>   8.3379  0.0000</r>
       <r>   8.3830  0.0000</r>
       <r>   8.4609  0.0000</r>
      </set>
      <set comment="kpoint 4">
       <r> -57.6883  1.0000</r>
       <r> -57.6537  1.0000</r>
       <r> -57.5808  1.0000</r>
       <r> -57.5805  1.0000</r>
       <r> -57.5768  1.0000</r>
       <r> -57.5766  1.0000</r>
       <r> -57.5617  1.0000</r>
       <r> -57.5580  1.0000</r>
       <r> -57.5180  1.0000</r>
       <r> -57.4920  1.0000</r>
       <r> -57.4719  1.0000</r>
       <r> -57.4506  1.0000</r>
       <r> -57.4229  1.0000</r>
       <r> -57.3965  1.0000</r>
       <r> -57.3784  1.0000</r>
       <r> -31.9799  1.0000</r>
       <r> -31.9775  1.0000</r>
       <r> -31.9713  1.0000</r>
       <r> -31.9697  1.0000</r>
       <r> -31.9473  1.0000</r>
       <r> -31.9391  1.0000</r>
       <r> -31.9027  1.0000</r>
       <r> -31.9007  1.0000</r>
       <r> -31.8776  1.0000</r>
       <r> -31.8608  1.0000</r>
       <r> -31.8380  1.0000</r>
       <r> -31.8193  1.0000</r>
       <r> -31.7969  1.0000</r>
       <r> -31.7475  1.0000</r>
       <r> -31.7055  1.0000</r>
       <r> -31.6752  1.0000</r>
       <r> -31.6403  1.0000</r>
       <r> -31.6310  1.0000</r>
       <r> -31.6071  1.0000</r>
       <r> -31.5772  1.0000</r>
       <r> -31.5197  1.0000</r>
       <r> -31.5103  1.0000</r>
       <r> -31.5011  1.0000</r>
       <r> -31.4916  1.0000</r>
       <r> -31.4852  1.0000</r>
       <r> -31.4170  1.0000</r>
       <r> -31.4140  1.0000</r>
       <r> -31.4001  1.0000</r>
       <r> -31.3720  1.0000</r>
       <r> -31.3560  1.0000</r>
       <r> -31.3475  1.0000</r>
       <r> -31.3107  1.0000</r>
       <r> -31.3081  1.0000</r>
       <r> -31.3047  1.0000</r>
       <r> -31.2859  1.0000</r>
       <r> -31.2723  1.0000</r>
       <r> -31.2599  1.0000</r>
       <r> -31.2524  1.0000</r>
       <r> -31.2327  1.0000</r>
       <r> -31.2309  1.0000</r>
       <r> -31.2103  1.0000</r>
       <r> -31.2042  1.0000</r>
       <r> -31.2001  1.0000</r>
       <r> -31.1845  1.0000</r>
       <r> -31.1752  1.0000</r>
       <r>   0.0350  1.0000</r>
       <r>   0.6308  1.0000</r>
       <r>   2.4646  1.0000</r>
       <r>   2.6624  1.0000</r>
       <r>   2.7249  1.0000</r>
       <r>   2.7399  1.0000</r>
       <r>   2.8845  1.0000</r>
       <r>   2.8944  1.0000</r>
       <r>   3.0426  1.0000</r>
       <r>   3.0444  1.0000</r>
       <r>   3.0654  1.0000</r>
       <r>   3.1789  1.0000</r>
       <r>   3.1889  1.0000</r>
       <r>   3.2562  1.0000</r>
       <r>   3.3110  1.0000</r>
       <r>   3.5147  1.0000</r>
       <r>   3.6116  1.0000</r>
       <r>   3.6249  1.0000</r>
       <r>   4.0461  1.0000</r>
       <r>   4.0588  1.0000</r>
       <r>   4.4139  1.0000</r>
       <r>   4.4157  1.0000</r>
       <r>   4.5340  1.0000</r>
       <r>   4.6418  1.0000</r>
       <r>   4.8866  1.0000</r>
       <r>   4.8990  1.0000</r>
       <r>   5.0884  1.0000</r>
       <r>   5.1336  1.0000</r>
       <r>   5.1851  1.0001</r>
       <r>   5.2410  1.0003</r>
       <r>   5.3138  1.0016</r>
       <r>   5.3650  1.0044</r>
       <r>   5.4055  1.0088</r>
       <r>   5.4063  1.0089</r>
       <r>   5.4644  1.0197</r>
       <r>   5.5429  1.0350</r>
       <r>   5.5528  1.0354</r>
       <r>   5.6081  1.0199</r>
       <r>   5.6323  0.9984</r>
       <r>   5.7433  0.7269</r>
       <r>   5.8570  0.2668</r>
       <r>   5.8604  0.2545</r>
       <r>   5.9156  0.0885</r>
       <r>   6.0022 -0.0266</r>
       <r>   6.0657 -0.0339</r>
       <r>   6.0699 -0.0333</r>
       <r>   6.1764 -0.0114</r>
       <r>   6.4285  0.0000</r>
       <r>   6.7216  0.0000</r>
       <r>   6.9565  0.0000</r>
       <r>   7.0999  0.0000</r>
       <r>   7.1452  0.0000</r>
       <r>   7.2161  0.0000</r>
       <r>   7.4625  0.0000</r>
       <r>   7.5250  0.0000</r>
       <r>   7.5678  0.0000</r>
       <r>   7.5883  0.0000</r>
       <r>   7.6842  0.0000</r>
       <r>   7.6846  0.0000</r>
       <r>   7.8449  0.0000</r>
       <r>   7.8537  0.0000</r>
       <r>   7.9287  0.0000</r>
       <r>   8.1660  0.0000</r>
       <r>   8.1842  0.0000</r>
       <r>   8.2811  0.0000</r>
       <r>   8.4000  0.0000</r>
       <r>   8.4224  0.0000</r>
       <r>   8.4835  0.0000</r>
      </set>
      <set comment="kpoint 5">
       <r> -57.7111  1.0000</r>
       <r> -57.6054  1.0000</r>
       <r> -57.6019  1.0000</r>
       <r> -57.5856  1.0000</r>
       <r> -57.5732  1.0000</r>
       <r> -57.5688  1.0000</r>
       <r> -57.5687  1.0000</r>
       <r> -57.5538  1.0000</r>
       <r> -57.5175  1.0000</r>
       <r> -57.4878  1.0000</r>
       <r> -57.4819  1.0000</r>
       <r> -57.4511  1.0000</r>
       <r> -57.4197  1.0000</r>
       <r> -57.4160  1.0000</r>
       <r> -57.3634  1.0000</r>
       <r> -32.0536  1.0000</r>
       <r> -32.0394  1.0000</r>
       <r> -32.0363  1.0000</r>
       <r> -32.0113  1.0000</r>
       <r> -32.0093  1.0000</r>
       <r> -31.9983  1.0000</r>
       <r> -31.8186  1.0000</r>
       <r> -31.8141  1.0000</r>
       <r> -31.7957  1.0000</r>
       <r> -31.7844  1.0000</r>
       <r> -31.7824  1.0000</r>
       <r> -31.7763  1.0000</r>
       <r> -31.7591  1.0000</r>
       <r> -31.7029  1.0000</r>
       <r> -31.6753  1.0000</r>
       <r> -31.6716  1.0000</r>
       <r> -31.6224  1.0000</r>
       <r> -31.6013  1.0000</r>
       <r> -31.5667  1.0000</r>
       <r> -31.5598  1.0000</r>
       <r> -31.5450  1.0000</r>
       <r> -31.5272  1.0000</r>
       <r> -31.5123  1.0000</r>
       <r> -31.4906  1.0000</r>
       <r> -31.4868  1.0000</r>
       <r> -31.4765  1.0000</r>
       <r> -31.4403  1.0000</r>
       <r> -31.4353  1.0000</r>
       <r> -31.4224  1.0000</r>
       <r> -31.4190  1.0000</r>
       <r> -31.3854  1.0000</r>
       <r> -31.3711  1.0000</r>
       <r> -31.3448  1.0000</r>
       <r> -31.3445  1.0000</r>
       <r> -31.3045  1.0000</r>
       <r> -31.2964  1.0000</r>
       <r> -31.2716  1.0000</r>
       <r> -31.2617  1.0000</r>
       <r> -31.2598  1.0000</r>
       <r> -31.2033  1.0000</r>
       <r> -31.1611  1.0000</r>
       <r> -31.1536  1.0000</r>
       <r> -31.1509  1.0000</r>
       <r> -31.1379  1.0000</r>
       <r> -31.1278  1.0000</r>
       <r>  -0.5476  1.0000</r>
       <r>   1.8561  1.0000</r>
       <r>   2.0733  1.0000</r>
       <r>   2.4504  1.0000</r>
       <r>   2.5608  1.0000</r>
       <r>   2.6687  1.0000</r>
       <r>   2.7060  1.0000</r>
       <r>   2.7285  1.0000</r>
       <r>   2.7380  1.0000</r>
       <r>   2.7601  1.0000</r>
       <r>   2.8554  1.0000</r>
       <r>   2.8704  1.0000</r>
       <r>   3.1510  1.0000</r>
       <r>   3.3530  1.0000</r>
       <r>   3.3893  1.0000</r>
       <r>   3.9321  1.0000</r>
       <r>   4.0034  1.0000</r>
       <r>   4.0369  1.0000</r>
       <r>   4.2509  1.0000</r>
       <r>   4.2678  1.0000</r>
       <r>   4.3011  1.0000</r>
       <r>   4.4489  1.0000</r>
       <r>   4.5045  1.0000</r>
       <r>   4.6442  1.0000</r>
       <r>   4.6541  1.0000</r>
       <r>   4.6820  1.0000</r>
       <r>   4.7039  1.0000</r>
       <r>   4.7908  1.0000</r>
       <r>   4.8181  1.0000</r>
       <r>   4.8745  1.0000</r>
       <r>   5.0238  1.0000</r>
       <r>   5.3339  1.0024</r>
       <r>   5.5193  1.0318</r>
       <r>   5.5671  1.0348</r>
       <r>   5.7154  0.8228</r>
       <r>   5.7173  0.8168</r>
       <r>   5.9754 -0.0079</r>
       <r>   5.9953 -0.0229</r>
       <r>   6.0106 -0.0301</r>
       <r>   6.0978 -0.0280</r>
       <r>   6.1672 -0.0130</r>
       <r>   6.3374 -0.0005</r>
       <r>   6.3530 -0.0003</r>
       <r>   6.4645  0.0000</r>
       <r>   6.4651  0.0000</r>
       <r>   6.5733  0.0000</r>
       <r>   6.6033  0.0000</r>
       <r>   6.6299  0.0000</r>
       <r>   6.6965  0.0000</r>
       <r>   6.7163  0.0000</r>
       <r>   6.7909  0.0000</r>
       <r>   6.8483  0.0000</r>
       <r>   6.8981  0.0000</r>
       <r>   7.1428  0.0000</r>
       <r>   7.1861  0.0000</r>
       <r>   7.2402  0.0000</r>
       <r>   7.4971  0.0000</r>
       <r>   7.6250  0.0000</r>
       <r>   7.7598  0.0000</r>
       <r>   7.8446  0.0000</r>
       <r>   8.0704  0.0000</r>
       <r>   8.1003  0.0000</r>
       <r>   8.1186  0.0000</r>
       <r>   8.1774  0.0000</r>
       <r>   8.2199  0.0000</r>
       <r>   8.3142  0.0000</r>
       <r>   8.3840  0.0000</r>
       <r>   8.3909  0.0000</r>
      </set>
      <set comment="kpoint 6">
       <r> -57.6984  1.0000</r>
       <r> -57.6272  1.0000</r>
       <r> -57.5989  1.0000</r>
       <r> -57.5829  1.0000</r>
       <r> -57.5783  1.0000</r>
       <r> -57.5716  1.0000</r>
       <r> -57.5663  1.0000</r>
       <r> -57.5563  1.0000</r>
       <r> -57.5156  1.0000</r>
       <r> -57.4860  1.0000</r>
       <r> -57.4751  1.0000</r>
       <r> -57.4512  1.0000</r>
       <r> -57.4190  1.0000</r>
       <r> -57.4083  1.0000</r>
       <r> -57.3711  1.0000</r>
       <r> -32.0258  1.0000</r>
       <r> -32.0090  1.0000</r>
       <r> -32.0047  1.0000</r>
       <r> -31.9857  1.0000</r>
       <r> -31.9766  1.0000</r>
       <r> -31.9523  1.0000</r>
       <r> -31.8658  1.0000</r>
       <r> -31.8538  1.0000</r>
       <r> -31.8342  1.0000</r>
       <r> -31.8257  1.0000</r>
       <r> -31.8136  1.0000</r>
       <r> -31.7854  1.0000</r>
       <r> -31.7835  1.0000</r>
       <r> -31.7166  1.0000</r>
       <r> -31.6908  1.0000</r>
       <r> -31.6593  1.0000</r>
       <r> -31.6509  1.0000</r>
       <r> -31.6042  1.0000</r>
       <r> -31.5823  1.0000</r>
       <r> -31.5631  1.0000</r>
       <r> -31.5504  1.0000</r>
       <r> -31.5283  1.0000</r>
       <r> -31.5119  1.0000</r>
       <r> -31.5065  1.0000</r>
       <r> -31.4968  1.0000</r>
       <r> -31.4669  1.0000</r>
       <r> -31.4267  1.0000</r>
       <r> -31.4161  1.0000</r>
       <r> -31.4050  1.0000</r>
       <r> -31.3958  1.0000</r>
       <r> -31.3563  1.0000</r>
       <r> -31.3319  1.0000</r>
       <r> -31.3127  1.0000</r>
       <r> -31.3084  1.0000</r>
       <r> -31.3039  1.0000</r>
       <r> -31.2981  1.0000</r>
       <r> -31.2729  1.0000</r>
       <r> -31.2492  1.0000</r>
       <r> -31.2433  1.0000</r>
       <r> -31.2296  1.0000</r>
       <r> -31.1846  1.0000</r>
       <r> -31.1763  1.0000</r>
       <r> -31.1718  1.0000</r>
       <r> -31.1498  1.0000</r>
       <r> -31.1347  1.0000</r>
       <r>  -0.2480  1.0000</r>
       <r>   1.3414  1.0000</r>
       <r>   2.0995  1.0000</r>
       <r>   2.4320  1.0000</r>
       <r>   2.6454  1.0000</r>
       <r>   2.7773  1.0000</r>
       <r>   2.8736  1.0000</r>
       <r>   2.8765  1.0000</r>
       <r>   2.8937  1.0000</r>
       <r>   2.9532  1.0000</r>
       <r>   3.0114  1.0000</r>
       <r>   3.0494  1.0000</r>
       <r>   3.2079  1.0000</r>
       <r>   3.3683  1.0000</r>
       <r>   3.4579  1.0000</r>
       <r>   3.8372  1.0000</r>
       <r>   3.9001  1.0000</r>
       <r>   3.9406  1.0000</r>
       <r>   4.0584  1.0000</r>
       <r>   4.1653  1.0000</r>
       <r>   4.3091  1.0000</r>
       <r>   4.4499  1.0000</r>
       <r>   4.4842  1.0000</r>
       <r>   4.5906  1.0000</r>
       <r>   4.6649  1.0000</r>
       <r>   4.7357  1.0000</r>
       <r>   4.7819  1.0000</r>
       <r>   4.9320  1.0000</r>
       <r>   4.9638  1.0000</r>
       <r>   4.9724  1.0000</r>
       <r>   5.0743  1.0000</r>
       <r>   5.3155  1.0017</r>
       <r>   5.4132  1.0099</r>
       <r>   5.5320  1.0338</r>
       <r>   5.5732  1.0339</r>
       <r>   5.6438  0.9841</r>
       <r>   5.6875  0.9008</r>
       <r>   5.7438  0.7250</r>
       <r>   5.8396  0.3331</r>
       <r>   5.8725  0.2119</r>
       <r>   5.9841 -0.0154</r>
       <r>   6.0060 -0.0283</r>
       <r>   6.0812 -0.0314</r>
       <r>   6.1274 -0.0212</r>
       <r>   6.2111 -0.0066</r>
       <r>   6.2355 -0.0043</r>
       <r>   6.4218  0.0000</r>
       <r>   6.5145  0.0000</r>
       <r>   6.6885  0.0000</r>
       <r>   6.7593  0.0000</r>
       <r>   6.8944  0.0000</r>
       <r>   7.0869  0.0000</r>
       <r>   7.1097  0.0000</r>
       <r>   7.3270  0.0000</r>
       <r>   7.3343  0.0000</r>
       <r>   7.3703  0.0000</r>
       <r>   7.4207  0.0000</r>
       <r>   7.6171  0.0000</r>
       <r>   7.7030  0.0000</r>
       <r>   7.9233  0.0000</r>
       <r>   7.9749  0.0000</r>
       <r>   8.0438  0.0000</r>
       <r>   8.0936  0.0000</r>
       <r>   8.2252  0.0000</r>
       <r>   8.2582  0.0000</r>
       <r>   8.2783  0.0000</r>
       <r>   8.3696  0.0000</r>
       <r>   8.4189  0.0000</r>
      </set>
      <set comment="kpoint 7">
       <r> -57.6824  1.0000</r>
       <r> -57.6494  1.0000</r>
       <r> -57.5935  1.0000</r>
       <r> -57.5842  1.0000</r>
       <r> -57.5791  1.0000</r>
       <r> -57.5752  1.0000</r>
       <r> -57.5631  1.0000</r>
       <r> -57.5595  1.0000</r>
       <r> -57.5148  1.0000</r>
       <r> -57.4856  1.0000</r>
       <r> -57.4707  1.0000</r>
       <r> -57.4512  1.0000</r>
       <r> -57.4189  1.0000</r>
       <r> -57.3975  1.0000</r>
       <r> -57.3810  1.0000</r>
       <r> -31.9842  1.0000</r>
       <r> -31.9741  1.0000</r>
       <r> -31.9661  1.0000</r>
       <r> -31.9561  1.0000</r>
       <r> -31.9378  1.0000</r>
       <r> -31.9253  1.0000</r>
       <r> -31.9047  1.0000</r>
       <r> -31.9000  1.0000</r>
       <r> -31.8762  1.0000</r>
       <r> -31.8620  1.0000</r>
       <r> -31.8375  1.0000</r>
       <r> -31.8164  1.0000</r>
       <r> -31.7854  1.0000</r>
       <r> -31.7616  1.0000</r>
       <r> -31.7004  1.0000</r>
       <r> -31.6412  1.0000</r>
       <r> -31.6373  1.0000</r>
       <r> -31.6202  1.0000</r>
       <r> -31.5992  1.0000</r>
       <r> -31.5843  1.0000</r>
       <r> -31.5428  1.0000</r>
       <r> -31.5291  1.0000</r>
       <r> -31.5195  1.0000</r>
       <r> -31.5069  1.0000</r>
       <r> -31.4942  1.0000</r>
       <r> -31.4354  1.0000</r>
       <r> -31.4242  1.0000</r>
       <r> -31.3985  1.0000</r>
       <r> -31.3863  1.0000</r>
       <r> -31.3671  1.0000</r>
       <r> -31.3501  1.0000</r>
       <r> -31.3318  1.0000</r>
       <r> -31.3238  1.0000</r>
       <r> -31.3091  1.0000</r>
       <r> -31.2973  1.0000</r>
       <r> -31.2740  1.0000</r>
       <r> -31.2588  1.0000</r>
       <r> -31.2456  1.0000</r>
       <r> -31.2275  1.0000</r>
       <r> -31.2080  1.0000</r>
       <r> -31.2045  1.0000</r>
       <r> -31.1961  1.0000</r>
       <r> -31.1896  1.0000</r>
       <r> -31.1696  1.0000</r>
       <r> -31.1533  1.0000</r>
       <r>   0.1711  1.0000</r>
       <r>   0.7546  1.0000</r>
       <r>   2.2005  1.0000</r>
       <r>   2.4111  1.0000</r>
       <r>   2.7096  1.0000</r>
       <r>   2.8461  1.0000</r>
       <r>   3.0057  1.0000</r>
       <r>   3.0350  1.0000</r>
       <r>   3.1299  1.0000</r>
       <r>   3.1606  1.0000</r>
       <r>   3.2144  1.0000</r>
       <r>   3.2275  1.0000</r>
       <r>   3.3013  1.0000</r>
       <r>   3.3278  1.0000</r>
       <r>   3.3827  1.0000</r>
       <r>   3.5769  1.0000</r>
       <r>   3.6395  1.0000</r>
       <r>   3.6587  1.0000</r>
       <r>   4.0793  1.0000</r>
       <r>   4.1114  1.0000</r>
       <r>   4.3839  1.0000</r>
       <r>   4.4449  1.0000</r>
       <r>   4.5038  1.0000</r>
       <r>   4.5864  1.0000</r>
       <r>   4.8214  1.0000</r>
       <r>   4.8614  1.0000</r>
       <r>   4.8970  1.0000</r>
       <r>   5.0095  1.0000</r>
       <r>   5.0842  1.0000</r>
       <r>   5.1240  1.0000</r>
       <r>   5.1653  1.0000</r>
       <r>   5.3235  1.0020</r>
       <r>   5.3420  1.0028</r>
       <r>   5.3938  1.0073</r>
       <r>   5.4404  1.0147</r>
       <r>   5.4604  1.0188</r>
       <r>   5.5578  1.0354</r>
       <r>   5.5756  1.0335</r>
       <r>   5.6648  0.9500</r>
       <r>   5.6879  0.8997</r>
       <r>   5.7320  0.7677</r>
       <r>   5.8040  0.4803</r>
       <r>   5.8236  0.3981</r>
       <r>   5.8498  0.2935</r>
       <r>   5.8672  0.2301</r>
       <r>   5.9403  0.0383</r>
       <r>   6.2798 -0.0018</r>
       <r>   6.6609  0.0000</r>
       <r>   6.8054  0.0000</r>
       <r>   6.8225  0.0000</r>
       <r>   7.0715  0.0000</r>
       <r>   7.1993  0.0000</r>
       <r>   7.3485  0.0000</r>
       <r>   7.4119  0.0000</r>
       <r>   7.4383  0.0000</r>
       <r>   7.5169  0.0000</r>
       <r>   7.5412  0.0000</r>
       <r>   7.5806  0.0000</r>
       <r>   7.7246  0.0000</r>
       <r>   7.7667  0.0000</r>
       <r>   7.8155  0.0000</r>
       <r>   7.9202  0.0000</r>
       <r>   8.0384  0.0000</r>
       <r>   8.1450  0.0000</r>
       <r>   8.1906  0.0000</r>
       <r>   8.3289  0.0000</r>
       <r>   8.3705  0.0000</r>
       <r>   8.4343  0.0000</r>
      </set>
      <set comment="kpoint 8">
       <r> -57.6864  1.0000</r>
       <r> -57.6237  1.0000</r>
       <r> -57.6174  1.0000</r>
       <r> -57.5867  1.0000</r>
       <r> -57.5801  1.0000</r>
       <r> -57.5691  1.0000</r>
       <r> -57.5690  1.0000</r>
       <r> -57.5588  1.0000</r>
       <r> -57.5135  1.0000</r>
       <r> -57.4791  1.0000</r>
       <r> -57.4726  1.0000</r>
       <r> -57.4519  1.0000</r>
       <r> -57.4136  1.0000</r>
       <r> -57.4064  1.0000</r>
       <r> -57.3777  1.0000</r>
       <r> -32.0099  1.0000</r>
       <r> -31.9889  1.0000</r>
       <r> -31.9751  1.0000</r>
       <r> -31.9658  1.0000</r>
       <r> -31.9493  1.0000</r>
       <r> -31.9050  1.0000</r>
       <r> -31.8901  1.0000</r>
       <r> -31.8859  1.0000</r>
       <r> -31.8677  1.0000</r>
       <r> -31.8466  1.0000</r>
       <r> -31.8378  1.0000</r>
       <r> -31.7989  1.0000</r>
       <r> -31.7899  1.0000</r>
       <r> -31.7013  1.0000</r>
       <r> -31.6540  1.0000</r>
       <r> -31.6535  1.0000</r>
       <r> -31.6316  1.0000</r>
       <r> -31.6092  1.0000</r>
       <r> -31.5990  1.0000</r>
       <r> -31.5903  1.0000</r>
       <r> -31.5643  1.0000</r>
       <r> -31.5501  1.0000</r>
       <r> -31.5304  1.0000</r>
       <r> -31.5192  1.0000</r>
       <r> -31.4982  1.0000</r>
       <r> -31.4662  1.0000</r>
       <r> -31.4415  1.0000</r>
       <r> -31.4316  1.0000</r>
       <r> -31.4090  1.0000</r>
       <r> -31.3737  1.0000</r>
       <r> -31.3516  1.0000</r>
       <r> -31.3256  1.0000</r>
       <r> -31.3172  1.0000</r>
       <r> -31.3096  1.0000</r>
       <r> -31.3028  1.0000</r>
       <r> -31.2925  1.0000</r>
       <r> -31.2674  1.0000</r>
       <r> -31.2563  1.0000</r>
       <r> -31.2205  1.0000</r>
       <r> -31.1940  1.0000</r>
       <r> -31.1912  1.0000</r>
       <r> -31.1868  1.0000</r>
       <r> -31.1866  1.0000</r>
       <r> -31.1505  1.0000</r>
       <r> -31.1278  1.0000</r>
       <r>   0.0374  1.0000</r>
       <r>   1.4505  1.0000</r>
       <r>   1.6293  1.0000</r>
       <r>   2.2589  1.0000</r>
       <r>   2.8019  1.0000</r>
       <r>   2.9661  1.0000</r>
       <r>   2.9832  1.0000</r>
       <r>   3.0099  1.0000</r>
       <r>   3.0657  1.0000</r>
       <r>   3.0906  1.0000</r>
       <r>   3.1565  1.0000</r>
       <r>   3.2258  1.0000</r>
       <r>   3.3222  1.0000</r>
       <r>   3.4292  1.0000</r>
       <r>   3.5175  1.0000</r>
       <r>   3.7988  1.0000</r>
       <r>   3.8835  1.0000</r>
       <r>   3.9686  1.0000</r>
       <r>   4.0839  1.0000</r>
       <r>   4.0919  1.0000</r>
       <r>   4.2270  1.0000</r>
       <r>   4.4441  1.0000</r>
       <r>   4.4476  1.0000</r>
       <r>   4.5605  1.0000</r>
       <r>   4.6567  1.0000</r>
       <r>   4.7243  1.0000</r>
       <r>   4.7924  1.0000</r>
       <r>   4.8718  1.0000</r>
       <r>   4.8870  1.0000</r>
       <r>   4.9959  1.0000</r>
       <r>   5.0462  1.0000</r>
       <r>   5.2155  1.0001</r>
       <r>   5.3166  1.0017</r>
       <r>   5.3926  1.0072</r>
       <r>   5.4730  1.0216</r>
       <r>   5.5537  1.0355</r>
       <r>   5.5876  1.0302</r>
       <r>   5.6199  1.0109</r>
       <r>   5.6818  0.9142</r>
       <r>   5.7073  0.8472</r>
       <r>   5.7206  0.8062</r>
       <r>   5.7408  0.7363</r>
       <r>   5.8431  0.3194</r>
       <r>   5.9245  0.0685</r>
       <r>   5.9741 -0.0066</r>
       <r>   6.2542 -0.0030</r>
       <r>   6.4466  0.0000</r>
       <r>   6.5303  0.0000</r>
       <r>   6.6237  0.0000</r>
       <r>   6.7107  0.0000</r>
       <r>   6.9911  0.0000</r>
       <r>   7.0983  0.0000</r>
       <r>   7.3559  0.0000</r>
       <r>   7.3870  0.0000</r>
       <r>   7.4056  0.0000</r>
       <r>   7.4816  0.0000</r>
       <r>   7.5417  0.0000</r>
       <r>   7.5762  0.0000</r>
       <r>   7.6188  0.0000</r>
       <r>   7.7906  0.0000</r>
       <r>   7.9170  0.0000</r>
       <r>   7.9937  0.0000</r>
       <r>   8.0352  0.0000</r>
       <r>   8.0587  0.0000</r>
       <r>   8.1986  0.0000</r>
       <r>   8.2096  0.0000</r>
       <r>   8.2866  0.0000</r>
       <r>   8.3376  0.0000</r>
      </set>
      <set comment="kpoint 9">
       <r> -57.6714  1.0000</r>
       <r> -57.6418  1.0000</r>
       <r> -57.6128  1.0000</r>
       <r> -57.5954  1.0000</r>
       <r> -57.5766  1.0000</r>
       <r> -57.5727  1.0000</r>
       <r> -57.5658  1.0000</r>
       <r> -57.5622  1.0000</r>
       <r> -57.5125  1.0000</r>
       <r> -57.4764  1.0000</r>
       <r> -57.4694  1.0000</r>
       <r> -57.4526  1.0000</r>
       <r> -57.4120  1.0000</r>
       <r> -57.3990  1.0000</r>
       <r> -57.3861  1.0000</r>
       <r> -31.9791  1.0000</r>
       <r> -31.9623  1.0000</r>
       <r> -31.9498  1.0000</r>
       <r> -31.9367  1.0000</r>
       <r> -31.9317  1.0000</r>
       <r> -31.9256  1.0000</r>
       <r> -31.9087  1.0000</r>
       <r> -31.8950  1.0000</r>
       <r> -31.8835  1.0000</r>
       <r> -31.8689  1.0000</r>
       <r> -31.8505  1.0000</r>
       <r> -31.8154  1.0000</r>
       <r> -31.7692  1.0000</r>
       <r> -31.7095  1.0000</r>
       <r> -31.6839  1.0000</r>
       <r> -31.6416  1.0000</r>
       <r> -31.6197  1.0000</r>
       <r> -31.6085  1.0000</r>
       <r> -31.5940  1.0000</r>
       <r> -31.5855  1.0000</r>
       <r> -31.5709  1.0000</r>
       <r> -31.5566  1.0000</r>
       <r> -31.5490  1.0000</r>
       <r> -31.5347  1.0000</r>
       <r> -31.4917  1.0000</r>
       <r> -31.4649  1.0000</r>
       <r> -31.4471  1.0000</r>
       <r> -31.4304  1.0000</r>
       <r> -31.4104  1.0000</r>
       <r> -31.3850  1.0000</r>
       <r> -31.3574  1.0000</r>
       <r> -31.3428  1.0000</r>
       <r> -31.3386  1.0000</r>
       <r> -31.3037  1.0000</r>
       <r> -31.2892  1.0000</r>
       <r> -31.2702  1.0000</r>
       <r> -31.2523  1.0000</r>
       <r> -31.2331  1.0000</r>
       <r> -31.2213  1.0000</r>
       <r> -31.2132  1.0000</r>
       <r> -31.2050  1.0000</r>
       <r> -31.1777  1.0000</r>
       <r> -31.1628  1.0000</r>
       <r> -31.1555  1.0000</r>
       <r> -31.1335  1.0000</r>
       <r>   0.4308  1.0000</r>
       <r>   0.9868  1.0000</r>
       <r>   1.7696  1.0000</r>
       <r>   2.0684  1.0000</r>
       <r>   2.9069  1.0000</r>
       <r>   3.0485  1.0000</r>
       <r>   3.1190  1.0000</r>
       <r>   3.2062  1.0000</r>
       <r>   3.2524  1.0000</r>
       <r>   3.3055  1.0000</r>
       <r>   3.3349  1.0000</r>
       <r>   3.3580  1.0000</r>
       <r>   3.3941  1.0000</r>
       <r>   3.4536  1.0000</r>
       <r>   3.4840  1.0000</r>
       <r>   3.6631  1.0000</r>
       <r>   3.6871  1.0000</r>
       <r>   3.7652  1.0000</r>
       <r>   4.1398  1.0000</r>
       <r>   4.1848  1.0000</r>
       <r>   4.2196  1.0000</r>
       <r>   4.3899  1.0000</r>
       <r>   4.5083  1.0000</r>
       <r>   4.5865  1.0000</r>
       <r>   4.6328  1.0000</r>
       <r>   4.7267  1.0000</r>
       <r>   4.7755  1.0000</r>
       <r>   4.8345  1.0000</r>
       <r>   4.9161  1.0000</r>
       <r>   4.9620  1.0000</r>
       <r>   5.0490  1.0000</r>
       <r>   5.1271  1.0000</r>
       <r>   5.1811  1.0001</r>
       <r>   5.3661  1.0045</r>
       <r>   5.3786  1.0056</r>
       <r>   5.4182  1.0107</r>
       <r>   5.4640  1.0196</r>
       <r>   5.4974  1.0272</r>
       <r>   5.5505  1.0354</r>
       <r>   5.5586  1.0354</r>
       <r>   5.5956  1.0269</r>
       <r>   5.6760  0.9273</r>
       <r>   5.7130  0.8302</r>
       <r>   5.7439  0.7246</r>
       <r>   5.8336  0.3570</r>
       <r>   5.9971 -0.0239</r>
       <r>   6.4097 -0.0001</r>
       <r>   6.6449  0.0000</r>
       <r>   6.6971  0.0000</r>
       <r>   6.8447  0.0000</r>
       <r>   7.0550  0.0000</r>
       <r>   7.1783  0.0000</r>
       <r>   7.2574  0.0000</r>
       <r>   7.3839  0.0000</r>
       <r>   7.4789  0.0000</r>
       <r>   7.5741  0.0000</r>
       <r>   7.6088  0.0000</r>
       <r>   7.6646  0.0000</r>
       <r>   7.6938  0.0000</r>
       <r>   7.7128  0.0000</r>
       <r>   7.8599  0.0000</r>
       <r>   7.9146  0.0000</r>
       <r>   7.9648  0.0000</r>
       <r>   7.9999  0.0000</r>
       <r>   8.1261  0.0000</r>
       <r>   8.1681  0.0000</r>
       <r>   8.2505  0.0000</r>
       <r>   8.2853  0.0000</r>
      </set>
      <set comment="kpoint 10">
       <r> -57.6569  1.0000</r>
       <r> -57.6347  1.0000</r>
       <r> -57.6305  1.0000</r>
       <r> -57.6061  1.0000</r>
       <r> -57.5731  1.0000</r>
       <r> -57.5693  1.0000</r>
       <r> -57.5693  1.0000</r>
       <r> -57.5655  1.0000</r>
       <r> -57.5115  1.0000</r>
       <r> -57.4697  1.0000</r>
       <r> -57.4684  1.0000</r>
       <r> -57.4542  1.0000</r>
       <r> -57.4049  1.0000</r>
       <r> -57.3993  1.0000</r>
       <r> -57.3928  1.0000</r>
       <r> -31.9606  1.0000</r>
       <r> -31.9460  1.0000</r>
       <r> -31.9393  1.0000</r>
       <r> -31.9333  1.0000</r>
       <r> -31.9255  1.0000</r>
       <r> -31.9198  1.0000</r>
       <r> -31.9176  1.0000</r>
       <r> -31.9080  1.0000</r>
       <r> -31.8946  1.0000</r>
       <r> -31.8723  1.0000</r>
       <r> -31.8659  1.0000</r>
       <r> -31.8118  1.0000</r>
       <r> -31.7124  1.0000</r>
       <r> -31.6671  1.0000</r>
       <r> -31.6575  1.0000</r>
       <r> -31.6446  1.0000</r>
       <r> -31.6252  1.0000</r>
       <r> -31.6085  1.0000</r>
       <r> -31.6071  1.0000</r>
       <r> -31.5943  1.0000</r>
       <r> -31.5844  1.0000</r>
       <r> -31.5802  1.0000</r>
       <r> -31.5722  1.0000</r>
       <r> -31.5525  1.0000</r>
       <r> -31.4808  1.0000</r>
       <r> -31.4711  1.0000</r>
       <r> -31.4593  1.0000</r>
       <r> -31.4586  1.0000</r>
       <r> -31.4455  1.0000</r>
       <r> -31.4168  1.0000</r>
       <r> -31.3562  1.0000</r>
       <r> -31.3544  1.0000</r>
       <r> -31.3363  1.0000</r>
       <r> -31.2841  1.0000</r>
       <r> -31.2826  1.0000</r>
       <r> -31.2719  1.0000</r>
       <r> -31.2437  1.0000</r>
       <r> -31.2310  1.0000</r>
       <r> -31.2178  1.0000</r>
       <r> -31.2134  1.0000</r>
       <r> -31.2098  1.0000</r>
       <r> -31.1631  1.0000</r>
       <r> -31.1572  1.0000</r>
       <r> -31.1394  1.0000</r>
       <r> -31.1248  1.0000</r>
       <r>   0.7738  1.0000</r>
       <r>   1.2415  1.0000</r>
       <r>   1.3794  1.0000</r>
       <r>   1.7098  1.0000</r>
       <r>   3.0870  1.0000</r>
       <r>   3.1911  1.0000</r>
       <r>   3.2692  1.0000</r>
       <r>   3.2791  1.0000</r>
       <r>   3.4017  1.0000</r>
       <r>   3.4287  1.0000</r>
       <r>   3.4406  1.0000</r>
       <r>   3.4806  1.0000</r>
       <r>   3.4808  1.0000</r>
       <r>   3.4981  1.0000</r>
       <r>   3.6192  1.0000</r>
       <r>   3.6308  1.0000</r>
       <r>   3.6998  1.0000</r>
       <r>   3.9456  1.0000</r>
       <r>   4.1047  1.0000</r>
       <r>   4.1990  1.0000</r>
       <r>   4.2830  1.0000</r>
       <r>   4.3069  1.0000</r>
       <r>   4.3360  1.0000</r>
       <r>   4.5124  1.0000</r>
       <r>   4.5536  1.0000</r>
       <r>   4.6165  1.0000</r>
       <r>   4.6377  1.0000</r>
       <r>   4.6604  1.0000</r>
       <r>   4.6825  1.0000</r>
       <r>   4.9914  1.0000</r>
       <r>   4.9981  1.0000</r>
       <r>   5.0647  1.0000</r>
       <r>   5.1199  1.0000</r>
       <r>   5.2612  1.0005</r>
       <r>   5.2776  1.0007</r>
       <r>   5.3245  1.0020</r>
       <r>   5.3455  1.0031</r>
       <r>   5.3640  1.0043</r>
       <r>   5.3916  1.0070</r>
       <r>   5.4089  1.0093</r>
       <r>   5.5601  1.0353</r>
       <r>   5.6461  0.9808</r>
       <r>   5.6988  0.8715</r>
       <r>   5.7422  0.7312</r>
       <r>   5.9482  0.0255</r>
       <r>   6.1932 -0.0088</r>
       <r>   6.4112 -0.0001</r>
       <r>   6.5186  0.0000</r>
       <r>   6.5632  0.0000</r>
       <r>   6.6944  0.0000</r>
       <r>   7.0508  0.0000</r>
       <r>   7.2191  0.0000</r>
       <r>   7.2358  0.0000</r>
       <r>   7.3918  0.0000</r>
       <r>   7.4825  0.0000</r>
       <r>   7.5844  0.0000</r>
       <r>   7.7337  0.0000</r>
       <r>   7.7861  0.0000</r>
       <r>   7.8056  0.0000</r>
       <r>   7.8417  0.0000</r>
       <r>   7.8613  0.0000</r>
       <r>   7.8625  0.0000</r>
       <r>   7.9164  0.0000</r>
       <r>   8.0004  0.0000</r>
       <r>   8.0251  0.0000</r>
       <r>   8.1102  0.0000</r>
       <r>   8.1400  0.0000</r>
       <r>   8.1723  0.0000</r>
      </set>
      <set comment="kpoint 11">
       <r> -57.7046  1.0000</r>
       <r> -57.6029  1.0000</r>
       <r> -57.6029  1.0000</r>
       <r> -57.5981  1.0000</r>
       <r> -57.5718  1.0000</r>
       <r> -57.5718  1.0000</r>
       <r> -57.5714  1.0000</r>
       <r> -57.5553  1.0000</r>
       <r> -57.5140  1.0000</r>
       <r> -57.4816  1.0000</r>
       <r> -57.4816  1.0000</r>
       <r> -57.4512  1.0000</r>
       <r> -57.4159  1.0000</r>
       <r> -57.4159  1.0000</r>
       <r> -57.3672  1.0000</r>
       <r> -32.0412  1.0000</r>
       <r> -32.0248  1.0000</r>
       <r> -32.0248  1.0000</r>
       <r> -31.9947  1.0000</r>
       <r> -31.9818  1.0000</r>
       <r> -31.9818  1.0000</r>
       <r> -31.8480  1.0000</r>
       <r> -31.8278  1.0000</r>
       <r> -31.8278  1.0000</r>
       <r> -31.7890  1.0000</r>
       <r> -31.7890  1.0000</r>
       <r> -31.7812  1.0000</r>
       <r> -31.7290  1.0000</r>
       <r> -31.7290  1.0000</r>
       <r> -31.6960  1.0000</r>
       <r> -31.6499  1.0000</r>
       <r> -31.6312  1.0000</r>
       <r> -31.6312  1.0000</r>
       <r> -31.5819  1.0000</r>
       <r> -31.5819  1.0000</r>
       <r> -31.5648  1.0000</r>
       <r> -31.5525  1.0000</r>
       <r> -31.5046  1.0000</r>
       <r> -31.5046  1.0000</r>
       <r> -31.4519  1.0000</r>
       <r> -31.4519  1.0000</r>
       <r> -31.4451  1.0000</r>
       <r> -31.4094  1.0000</r>
       <r> -31.4094  1.0000</r>
       <r> -31.4040  1.0000</r>
       <r> -31.3811  1.0000</r>
       <r> -31.3811  1.0000</r>
       <r> -31.3457  1.0000</r>
       <r> -31.3111  1.0000</r>
       <r> -31.2905  1.0000</r>
       <r> -31.2905  1.0000</r>
       <r> -31.2860  1.0000</r>
       <r> -31.2490  1.0000</r>
       <r> -31.2490  1.0000</r>
       <r> -31.2260  1.0000</r>
       <r> -31.1679  1.0000</r>
       <r> -31.1679  1.0000</r>
       <r> -31.1427  1.0000</r>
       <r> -31.1427  1.0000</r>
       <r> -31.1391  1.0000</r>
       <r>  -0.3959  1.0000</r>
       <r>   1.8780  1.0000</r>
       <r>   2.1595  1.0000</r>
       <r>   2.1595  1.0000</r>
       <r>   2.5636  1.0000</r>
       <r>   2.6308  1.0000</r>
       <r>   2.6308  1.0000</r>
       <r>   2.8401  1.0000</r>
       <r>   2.8409  1.0000</r>
       <r>   2.8409  1.0000</r>
       <r>   2.9552  1.0000</r>
       <r>   2.9552  1.0000</r>
       <r>   3.4195  1.0000</r>
       <r>   3.4415  1.0000</r>
       <r>   3.4415  1.0000</r>
       <r>   3.8880  1.0000</r>
       <r>   4.0258  1.0000</r>
       <r>   4.0258  1.0000</r>
       <r>   4.2316  1.0000</r>
       <r>   4.2316  1.0000</r>
       <r>   4.3368  1.0000</r>
       <r>   4.3970  1.0000</r>
       <r>   4.4815  1.0000</r>
       <r>   4.4815  1.0000</r>
       <r>   4.6793  1.0000</r>
       <r>   4.6975  1.0000</r>
       <r>   4.7761  1.0000</r>
       <r>   4.7761  1.0000</r>
       <r>   4.8039  1.0000</r>
       <r>   4.8039  1.0000</r>
       <r>   5.2070  1.0001</r>
       <r>   5.2070  1.0001</r>
       <r>   5.4282  1.0124</r>
       <r>   5.4572  1.0181</r>
       <r>   5.6668  0.9461</r>
       <r>   5.6668  0.9461</r>
       <r>   5.8776  0.1950</r>
       <r>   5.8776  0.1950</r>
       <r>   5.9044  0.1163</r>
       <r>   5.9044  0.1163</r>
       <r>   6.1912 -0.0091</r>
       <r>   6.2089 -0.0068</r>
       <r>   6.2222 -0.0054</r>
       <r>   6.2222 -0.0054</r>
       <r>   6.3050 -0.0010</r>
       <r>   6.4191 -0.0001</r>
       <r>   6.4191 -0.0001</r>
       <r>   6.5389  0.0000</r>
       <r>   6.5575  0.0000</r>
       <r>   6.5575  0.0000</r>
       <r>   6.9331  0.0000</r>
       <r>   6.9331  0.0000</r>
       <r>   6.9783  0.0000</r>
       <r>   7.2815  0.0000</r>
       <r>   7.2815  0.0000</r>
       <r>   7.2891  0.0000</r>
       <r>   7.6619  0.0000</r>
       <r>   7.7405  0.0000</r>
       <r>   7.7405  0.0000</r>
       <r>   7.9868  0.0000</r>
       <r>   7.9992  0.0000</r>
       <r>   7.9992  0.0000</r>
       <r>   8.0710  0.0000</r>
       <r>   8.1636  0.0000</r>
       <r>   8.1636  0.0000</r>
       <r>   8.2528  0.0000</r>
       <r>   8.3518  0.0000</r>
       <r>   8.3518  0.0000</r>
      </set>
      <set comment="kpoint 12">
       <r> -57.6923  1.0000</r>
       <r> -57.6239  1.0000</r>
       <r> -57.5981  1.0000</r>
       <r> -57.5954  1.0000</r>
       <r> -57.5772  1.0000</r>
       <r> -57.5760  1.0000</r>
       <r> -57.5690  1.0000</r>
       <r> -57.5582  1.0000</r>
       <r> -57.5115  1.0000</r>
       <r> -57.4812  1.0000</r>
       <r> -57.4739  1.0000</r>
       <r> -57.4515  1.0000</r>
       <r> -57.4158  1.0000</r>
       <r> -57.4083  1.0000</r>
       <r> -57.3743  1.0000</r>
       <r> -32.0141  1.0000</r>
       <r> -32.0017  1.0000</r>
       <r> -31.9959  1.0000</r>
       <r> -31.9710  1.0000</r>
       <r> -31.9467  1.0000</r>
       <r> -31.9373  1.0000</r>
       <r> -31.8819  1.0000</r>
       <r> -31.8658  1.0000</r>
       <r> -31.8563  1.0000</r>
       <r> -31.8153  1.0000</r>
       <r> -31.8083  1.0000</r>
       <r> -31.7880  1.0000</r>
       <r> -31.7692  1.0000</r>
       <r> -31.7339  1.0000</r>
       <r> -31.6858  1.0000</r>
       <r> -31.6850  1.0000</r>
       <r> -31.6353  1.0000</r>
       <r> -31.6183  1.0000</r>
       <r> -31.5936  1.0000</r>
       <r> -31.5867  1.0000</r>
       <r> -31.5693  1.0000</r>
       <r> -31.5646  1.0000</r>
       <r> -31.5329  1.0000</r>
       <r> -31.5210  1.0000</r>
       <r> -31.4673  1.0000</r>
       <r> -31.4456  1.0000</r>
       <r> -31.4080  1.0000</r>
       <r> -31.4038  1.0000</r>
       <r> -31.3905  1.0000</r>
       <r> -31.3649  1.0000</r>
       <r> -31.3624  1.0000</r>
       <r> -31.3591  1.0000</r>
       <r> -31.3315  1.0000</r>
       <r> -31.3156  1.0000</r>
       <r> -31.3066  1.0000</r>
       <r> -31.2923  1.0000</r>
       <r> -31.2706  1.0000</r>
       <r> -31.2490  1.0000</r>
       <r> -31.2226  1.0000</r>
       <r> -31.2155  1.0000</r>
       <r> -31.1915  1.0000</r>
       <r> -31.1785  1.0000</r>
       <r> -31.1685  1.0000</r>
       <r> -31.1472  1.0000</r>
       <r> -31.1441  1.0000</r>
       <r>  -0.1020  1.0000</r>
       <r>   1.4448  1.0000</r>
       <r>   2.1340  1.0000</r>
       <r>   2.3017  1.0000</r>
       <r>   2.5535  1.0000</r>
       <r>   2.6053  1.0000</r>
       <r>   2.8599  1.0000</r>
       <r>   2.9770  1.0000</r>
       <r>   2.9941  1.0000</r>
       <r>   3.0445  1.0000</r>
       <r>   3.1120  1.0000</r>
       <r>   3.1417  1.0000</r>
       <r>   3.4608  1.0000</r>
       <r>   3.4772  1.0000</r>
       <r>   3.5348  1.0000</r>
       <r>   3.8268  1.0000</r>
       <r>   3.9162  1.0000</r>
       <r>   3.9832  1.0000</r>
       <r>   4.0784  1.0000</r>
       <r>   4.1870  1.0000</r>
       <r>   4.2508  1.0000</r>
       <r>   4.4332  1.0000</r>
       <r>   4.4818  1.0000</r>
       <r>   4.4860  1.0000</r>
       <r>   4.6561  1.0000</r>
       <r>   4.7387  1.0000</r>
       <r>   4.7954  1.0000</r>
       <r>   4.8371  1.0000</r>
       <r>   4.9200  1.0000</r>
       <r>   4.9924  1.0000</r>
       <r>   5.0890  1.0000</r>
       <r>   5.2052  1.0001</r>
       <r>   5.3192  1.0018</r>
       <r>   5.4574  1.0181</r>
       <r>   5.4718  1.0214</r>
       <r>   5.5027  1.0284</r>
       <r>   5.6561  0.9654</r>
       <r>   5.6645  0.9505</r>
       <r>   5.7212  0.8041</r>
       <r>   5.7894  0.5419</r>
       <r>   5.8370  0.3434</r>
       <r>   5.8677  0.2284</r>
       <r>   5.9644  0.0038</r>
       <r>   5.9872 -0.0176</r>
       <r>   6.0072 -0.0287</r>
       <r>   6.0330 -0.0349</r>
       <r>   6.4440  0.0000</r>
       <r>   6.4536  0.0000</r>
       <r>   6.6469  0.0000</r>
       <r>   6.6863  0.0000</r>
       <r>   7.0226  0.0000</r>
       <r>   7.0553  0.0000</r>
       <r>   7.2285  0.0000</r>
       <r>   7.4342  0.0000</r>
       <r>   7.4508  0.0000</r>
       <r>   7.4860  0.0000</r>
       <r>   7.5027  0.0000</r>
       <r>   7.5870  0.0000</r>
       <r>   7.7814  0.0000</r>
       <r>   7.8269  0.0000</r>
       <r>   8.0051  0.0000</r>
       <r>   8.0272  0.0000</r>
       <r>   8.0737  0.0000</r>
       <r>   8.1377  0.0000</r>
       <r>   8.2220  0.0000</r>
       <r>   8.2588  0.0000</r>
       <r>   8.3046  0.0000</r>
       <r>   8.3889  0.0000</r>
      </set>
      <set comment="kpoint 13">
       <r> -57.6768  1.0000</r>
       <r> -57.6452  1.0000</r>
       <r> -57.5919  1.0000</r>
       <r> -57.5909  1.0000</r>
       <r> -57.5838  1.0000</r>
       <r> -57.5809  1.0000</r>
       <r> -57.5655  1.0000</r>
       <r> -57.5617  1.0000</r>
       <r> -57.5105  1.0000</r>
       <r> -57.4809  1.0000</r>
       <r> -57.4692  1.0000</r>
       <r> -57.4518  1.0000</r>
       <r> -57.4157  1.0000</r>
       <r> -57.3984  1.0000</r>
       <r> -57.3834  1.0000</r>
       <r> -31.9754  1.0000</r>
       <r> -31.9713  1.0000</r>
       <r> -31.9591  1.0000</r>
       <r> -31.9481  1.0000</r>
       <r> -31.9243  1.0000</r>
       <r> -31.9219  1.0000</r>
       <r> -31.8980  1.0000</r>
       <r> -31.8935  1.0000</r>
       <r> -31.8744  1.0000</r>
       <r> -31.8447  1.0000</r>
       <r> -31.8430  1.0000</r>
       <r> -31.7964  1.0000</r>
       <r> -31.7836  1.0000</r>
       <r> -31.7760  1.0000</r>
       <r> -31.7204  1.0000</r>
       <r> -31.6499  1.0000</r>
       <r> -31.6460  1.0000</r>
       <r> -31.6156  1.0000</r>
       <r> -31.5915  1.0000</r>
       <r> -31.5800  1.0000</r>
       <r> -31.5702  1.0000</r>
       <r> -31.5596  1.0000</r>
       <r> -31.5536  1.0000</r>
       <r> -31.5376  1.0000</r>
       <r> -31.4663  1.0000</r>
       <r> -31.4406  1.0000</r>
       <r> -31.4047  1.0000</r>
       <r> -31.3897  1.0000</r>
       <r> -31.3895  1.0000</r>
       <r> -31.3721  1.0000</r>
       <r> -31.3523  1.0000</r>
       <r> -31.3318  1.0000</r>
       <r> -31.3169  1.0000</r>
       <r> -31.3154  1.0000</r>
       <r> -31.3038  1.0000</r>
       <r> -31.2840  1.0000</r>
       <r> -31.2681  1.0000</r>
       <r> -31.2301  1.0000</r>
       <r> -31.2255  1.0000</r>
       <r> -31.2037  1.0000</r>
       <r> -31.2023  1.0000</r>
       <r> -31.1893  1.0000</r>
       <r> -31.1793  1.0000</r>
       <r> -31.1597  1.0000</r>
       <r> -31.1565  1.0000</r>
       <r>   0.3071  1.0000</r>
       <r>   0.8803  1.0000</r>
       <r>   2.2445  1.0000</r>
       <r>   2.4421  1.0000</r>
       <r>   2.5306  1.0000</r>
       <r>   2.5630  1.0000</r>
       <r>   3.1223  1.0000</r>
       <r>   3.1612  1.0000</r>
       <r>   3.1729  1.0000</r>
       <r>   3.2742  1.0000</r>
       <r>   3.3017  1.0000</r>
       <r>   3.3694  1.0000</r>
       <r>   3.4099  1.0000</r>
       <r>   3.4229  1.0000</r>
       <r>   3.4723  1.0000</r>
       <r>   3.6267  1.0000</r>
       <r>   3.6696  1.0000</r>
       <r>   3.7011  1.0000</r>
       <r>   4.0899  1.0000</r>
       <r>   4.1568  1.0000</r>
       <r>   4.3384  1.0000</r>
       <r>   4.4648  1.0000</r>
       <r>   4.4707  1.0000</r>
       <r>   4.6209  1.0000</r>
       <r>   4.6943  1.0000</r>
       <r>   4.8382  1.0000</r>
       <r>   4.8653  1.0000</r>
       <r>   4.9589  1.0000</r>
       <r>   5.0118  1.0000</r>
       <r>   5.0584  1.0000</r>
       <r>   5.0646  1.0000</r>
       <r>   5.1974  1.0001</r>
       <r>   5.2375  1.0003</r>
       <r>   5.2863  1.0009</r>
       <r>   5.3452  1.0030</r>
       <r>   5.4211  1.0112</r>
       <r>   5.4996  1.0277</r>
       <r>   5.5420  1.0349</r>
       <r>   5.5512  1.0354</r>
       <r>   5.5994  1.0250</r>
       <r>   5.6130  1.0165</r>
       <r>   5.6750  0.9294</r>
       <r>   5.7104  0.8382</r>
       <r>   5.7404  0.7375</r>
       <r>   5.7422  0.7308</r>
       <r>   5.7973  0.5085</r>
       <r>   6.3713 -0.0002</r>
       <r>   6.6900  0.0000</r>
       <r>   6.7222  0.0000</r>
       <r>   6.8163  0.0000</r>
       <r>   7.1302  0.0000</r>
       <r>   7.1653  0.0000</r>
       <r>   7.2340  0.0000</r>
       <r>   7.4563  0.0000</r>
       <r>   7.4713  0.0000</r>
       <r>   7.5719  0.0000</r>
       <r>   7.5727  0.0000</r>
       <r>   7.6046  0.0000</r>
       <r>   7.6453  0.0000</r>
       <r>   7.8018  0.0000</r>
       <r>   7.9107  0.0000</r>
       <r>   7.9302  0.0000</r>
       <r>   8.0369  0.0000</r>
       <r>   8.1455  0.0000</r>
       <r>   8.2915  0.0000</r>
       <r>   8.2997  0.0000</r>
       <r>   8.3598  0.0000</r>
       <r>   8.4017  0.0000</r>
      </set>
      <set comment="kpoint 14">
       <r> -57.6808  1.0000</r>
       <r> -57.6202  1.0000</r>
       <r> -57.6148  1.0000</r>
       <r> -57.5926  1.0000</r>
       <r> -57.5846  1.0000</r>
       <r> -57.5740  1.0000</r>
       <r> -57.5731  1.0000</r>
       <r> -57.5614  1.0000</r>
       <r> -57.5083  1.0000</r>
       <r> -57.4753  1.0000</r>
       <r> -57.4713  1.0000</r>
       <r> -57.4522  1.0000</r>
       <r> -57.4112  1.0000</r>
       <r> -57.4064  1.0000</r>
       <r> -57.3801  1.0000</r>
       <r> -31.9944  1.0000</r>
       <r> -31.9783  1.0000</r>
       <r> -31.9736  1.0000</r>
       <r> -31.9485  1.0000</r>
       <r> -31.9194  1.0000</r>
       <r> -31.9008  1.0000</r>
       <r> -31.8977  1.0000</r>
       <r> -31.8855  1.0000</r>
       <r> -31.8737  1.0000</r>
       <r> -31.8280  1.0000</r>
       <r> -31.8173  1.0000</r>
       <r> -31.7968  1.0000</r>
       <r> -31.7832  1.0000</r>
       <r> -31.7288  1.0000</r>
       <r> -31.7055  1.0000</r>
       <r> -31.6620  1.0000</r>
       <r> -31.6426  1.0000</r>
       <r> -31.6163  1.0000</r>
       <r> -31.6136  1.0000</r>
       <r> -31.6125  1.0000</r>
       <r> -31.5974  1.0000</r>
       <r> -31.5711  1.0000</r>
       <r> -31.5647  1.0000</r>
       <r> -31.5519  1.0000</r>
       <r> -31.4374  1.0000</r>
       <r> -31.4295  1.0000</r>
       <r> -31.4064  1.0000</r>
       <r> -31.3994  1.0000</r>
       <r> -31.3825  1.0000</r>
       <r> -31.3808  1.0000</r>
       <r> -31.3640  1.0000</r>
       <r> -31.3332  1.0000</r>
       <r> -31.3225  1.0000</r>
       <r> -31.3186  1.0000</r>
       <r> -31.3064  1.0000</r>
       <r> -31.3030  1.0000</r>
       <r> -31.2693  1.0000</r>
       <r> -31.2381  1.0000</r>
       <r> -31.2122  1.0000</r>
       <r> -31.1968  1.0000</r>
       <r> -31.1924  1.0000</r>
       <r> -31.1831  1.0000</r>
       <r> -31.1769  1.0000</r>
       <r> -31.1583  1.0000</r>
       <r> -31.1418  1.0000</r>
       <r>   0.1797  1.0000</r>
       <r>   1.5603  1.0000</r>
       <r>   1.7477  1.0000</r>
       <r>   2.3600  1.0000</r>
       <r>   2.4505  1.0000</r>
       <r>   2.8166  1.0000</r>
       <r>   2.8587  1.0000</r>
       <r>   3.1043  1.0000</r>
[...]
       <r>   3.6705  1.0000</r>
       <r>   3.6989  1.0000</r>
       <r>   3.7333  1.0000</r>
       <r>   3.8624  1.0000</r>
       <r>   3.9596  1.0000</r>
       <r>   4.1219  1.0000</r>
       <r>   4.2070  1.0000</r>
       <r>   4.2554  1.0000</r>
       <r>   4.3404  1.0000</r>
       <r>   4.3488  1.0000</r>
       <r>   4.4444  1.0000</r>
       <r>   4.5609  1.0000</r>
       <r>   4.6162  1.0000</r>
       <r>   4.6438  1.0000</r>
       <r>   4.6800  1.0000</r>
       <r>   4.7693  1.0000</r>
       <r>   4.8292  1.0000</r>
       <r>   4.9508  1.0000</r>
       <r>   4.9670  1.0000</r>
       <r>   5.0600  1.0000</r>
       <r>   5.1243  1.0000</r>
       <r>   5.1244  1.0000</r>
       <r>   5.2187  1.0002</r>
       <r>   5.2620  1.0005</r>
       <r>   5.2971  1.0011</r>
       <r>   5.3128  1.0016</r>
       <r>   5.3428  1.0029</r>
       <r>   5.4223  1.0114</r>
       <r>   5.4809  1.0234</r>
       <r>   5.5214  1.0322</r>
       <r>   5.5539  1.0355</r>
       <r>   5.6871  0.9016</r>
       <r>   5.9285  0.0604</r>
       <r>   6.0211 -0.0331</r>
       <r>   6.2960 -0.0012</r>
       <r>   6.5904  0.0000</r>
       <r>   6.5910  0.0000</r>
       <r>   7.2413  0.0000</r>
       <r>   7.2516  0.0000</r>
       <r>   7.2713  0.0000</r>
       <r>   7.6718  0.0000</r>
       <r>   7.8121  0.0000</r>
       <r>   7.8162  0.0000</r>
       <r>   7.8536  0.0000</r>
       <r>   7.8562  0.0000</r>
       <r>   7.9211  0.0000</r>
       <r>   7.9589  0.0000</r>
       <r>   7.9720  0.0000</r>
       <r>   8.0154  0.0000</r>
       <r>   8.0636  0.0000</r>
       <r>   8.0691  0.0000</r>
       <r>   8.0999  0.0000</r>
       <r>   8.1480  0.0000</r>
       <r>   8.1972  0.0000</r>
       <r>   8.2276  0.0000</r>
      </set>
      <set comment="kpoint 17">
       <r> -57.6699  1.0000</r>
       <r> -57.6136  1.0000</r>
       <r> -57.6136  1.0000</r>
       <r> -57.6072  1.0000</r>
       <r> -57.5825  1.0000</r>
       <r> -57.5825  1.0000</r>
       <r> -57.5783  1.0000</r>
       <r> -57.5654  1.0000</r>
       <r> -57.5037  1.0000</r>
       <r> -57.4695  1.0000</r>
       <r> -57.4695  1.0000</r>
       <r> -57.4531  1.0000</r>
       <r> -57.4064  1.0000</r>
       <r> -57.4064  1.0000</r>
       <r> -57.3850  1.0000</r>
       <r> -31.9666  1.0000</r>
       <r> -31.9576  1.0000</r>
       <r> -31.9576  1.0000</r>
       <r> -31.9228  1.0000</r>
       <r> -31.8983  1.0000</r>
       <r> -31.8978  1.0000</r>
       <r> -31.8978  1.0000</r>
       <r> -31.8691  1.0000</r>
       <r> -31.8691  1.0000</r>
       <r> -31.8129  1.0000</r>
       <r> -31.8129  1.0000</r>
       <r> -31.8059  1.0000</r>
       <r> -31.7672  1.0000</r>
       <r> -31.7672  1.0000</r>
       <r> -31.7314  1.0000</r>
       <r> -31.6814  1.0000</r>
       <r> -31.6814  1.0000</r>
       <r> -31.6549  1.0000</r>
       <r> -31.6305  1.0000</r>
       <r> -31.6305  1.0000</r>
       <r> -31.6157  1.0000</r>
       <r> -31.5967  1.0000</r>
       <r> -31.5967  1.0000</r>
       <r> -31.5605  1.0000</r>
       <r> -31.4178  1.0000</r>
       <r> -31.3992  1.0000</r>
       <r> -31.3878  1.0000</r>
       <r> -31.3878  1.0000</r>
       <r> -31.3568  1.0000</r>
       <r> -31.3568  1.0000</r>
       <r> -31.3474  1.0000</r>
       <r> -31.3337  1.0000</r>
       <r> -31.3337  1.0000</r>
       <r> -31.3132  1.0000</r>
       <r> -31.3132  1.0000</r>
       <r> -31.3040  1.0000</r>
       <r> -31.2748  1.0000</r>
       <r> -31.2237  1.0000</r>
       <r> -31.2102  1.0000</r>
       <r> -31.2102  1.0000</r>
       <r> -31.1822  1.0000</r>
       <r> -31.1822  1.0000</r>
       <r> -31.1672  1.0000</r>
       <r> -31.1672  1.0000</r>
       <r> -31.1672  1.0000</r>
       <r>   0.4530  1.0000</r>
       <r>   1.7056  1.0000</r>
       <r>   1.9643  1.0000</r>
       <r>   1.9643  1.0000</r>
       <r>   2.6130  1.0000</r>
       <r>   2.7173  1.0000</r>
       <r>   2.7173  1.0000</r>
       <r>   3.2640  1.0000</r>
       <r>   3.2640  1.0000</r>
       <r>   3.4153  1.0000</r>
       <r>   3.4685  1.0000</r>
       <r>   3.4685  1.0000</r>
       <r>   3.7071  1.0000</r>
       <r>   3.7102  1.0000</r>
       <r>   3.7102  1.0000</r>
       <r>   3.9040  1.0000</r>
       <r>   3.9547  1.0000</r>
       <r>   3.9920  1.0000</r>
       <r>   3.9920  1.0000</r>
       <r>   4.1336  1.0000</r>
       <r>   4.1805  1.0000</r>
       <r>   4.1805  1.0000</r>
       <r>   4.5271  1.0000</r>
       <r>   4.5271  1.0000</r>
       <r>   4.5305  1.0000</r>
       <r>   4.7715  1.0000</r>
       <r>   4.7715  1.0000</r>
       <r>   4.7955  1.0000</r>
       <r>   4.9203  1.0000</r>
       <r>   4.9203  1.0000</r>
       <r>   5.0720  1.0000</r>
       <r>   5.0720  1.0000</r>
       <r>   5.1001  1.0000</r>
       <r>   5.1165  1.0000</r>
       <r>   5.1165  1.0000</r>
       <r>   5.2409  1.0003</r>
       <r>   5.2841  1.0008</r>
       <r>   5.3471  1.0032</r>
       <r>   5.3937  1.0073</r>
       <r>   5.3937  1.0073</r>
       <r>   5.4539  1.0174</r>
       <r>   5.4539  1.0174</r>
       <r>   5.5276  1.0332</r>
       <r>   5.5276  1.0332</r>
       <r>   5.7556  0.6800</r>
       <r>   5.7556  0.6800</r>
       <r>   5.8000  0.4969</r>
       <r>   6.5814  0.0000</r>
       <r>   6.5814  0.0000</r>
       <r>   6.6592  0.0000</r>
       <r>   7.1772  0.0000</r>
       <r>   7.2394  0.0000</r>
       <r>   7.2394  0.0000</r>
       <r>   7.6106  0.0000</r>
       <r>   7.7077  0.0000</r>
       <r>   7.7112  0.0000</r>
       <r>   7.7112  0.0000</r>
       <r>   7.8317  0.0000</r>
       <r>   7.9127  0.0000</r>
       <r>   7.9127  0.0000</r>
       <r>   8.0825  0.0000</r>
       <r>   8.1269  0.0000</r>
       <r>   8.1269  0.0000</r>
       <r>   8.1699  0.0000</r>
       <r>   8.1699  0.0000</r>
       <r>   8.3356  0.0000</r>
       <r>   8.3356  0.0000</r>
       <r>   8.3766  0.0000</r>
      </set>
      <set comment="kpoint 18">
       <r> -57.6561  1.0000</r>
       <r> -57.6303  1.0000</r>
       <r> -57.6050  1.0000</r>
       <r> -57.6033  1.0000</r>
       <r> -57.5923  1.0000</r>
       <r> -57.5866  1.0000</r>
       <r> -57.5765  1.0000</r>
       <r> -57.5699  1.0000</r>
       <r> -57.5014  1.0000</r>
       <r> -57.4683  1.0000</r>
       <r> -57.4647  1.0000</r>
       <r> -57.4544  1.0000</r>
       <r> -57.4063  1.0000</r>
       <r> -57.4002  1.0000</r>
       <r> -57.3912  1.0000</r>
       <r> -31.9412  1.0000</r>
       <r> -31.9336  1.0000</r>
       <r> -31.9257  1.0000</r>
       <r> -31.9124  1.0000</r>
       <r> -31.9063  1.0000</r>
       <r> -31.8970  1.0000</r>
       <r> -31.8866  1.0000</r>
       <r> -31.8564  1.0000</r>
       <r> -31.8560  1.0000</r>
       <r> -31.8412  1.0000</r>
       <r> -31.8067  1.0000</r>
       <r> -31.8031  1.0000</r>
       <r> -31.7812  1.0000</r>
       <r> -31.7714  1.0000</r>
       <r> -31.7355  1.0000</r>
       <r> -31.7199  1.0000</r>
       <r> -31.6750  1.0000</r>
       <r> -31.6630  1.0000</r>
       <r> -31.6569  1.0000</r>
       <r> -31.6546  1.0000</r>
       <r> -31.6321  1.0000</r>
       <r> -31.6170  1.0000</r>
       <r> -31.6013  1.0000</r>
       <r> -31.5704  1.0000</r>
       <r> -31.4280  1.0000</r>
       <r> -31.4080  1.0000</r>
       <r> -31.3841  1.0000</r>
       <r> -31.3586  1.0000</r>
       <r> -31.3550  1.0000</r>
       <r> -31.3470  1.0000</r>
       <r> -31.3253  1.0000</r>
       <r> -31.3234  1.0000</r>
       <r> -31.3180  1.0000</r>
       <r> -31.3167  1.0000</r>
       <r> -31.3029  1.0000</r>
       <r> -31.2893  1.0000</r>
       <r> -31.2720  1.0000</r>
       <r> -31.2309  1.0000</r>
       <r> -31.2152  1.0000</r>
       <r> -31.2104  1.0000</r>
       <r> -31.2068  1.0000</r>
       <r> -31.1801  1.0000</r>
       <r> -31.1740  1.0000</r>
       <r> -31.1690  1.0000</r>
       <r> -31.1621  1.0000</r>
       <r>   0.8227  1.0000</r>
       <r>   1.3590  1.0000</r>
       <r>   2.0596  1.0000</r>
       <r>   2.2345  1.0000</r>
       <r>   2.4444  1.0000</r>
       <r>   2.5122  1.0000</r>
       <r>   3.0516  1.0000</r>
       <r>   3.3588  1.0000</r>
       <r>   3.4172  1.0000</r>
       <r>   3.5058  1.0000</r>
       <r>   3.6208  1.0000</r>
       <r>   3.6301  1.0000</r>
       <r>   3.6754  1.0000</r>
       <r>   3.6980  1.0000</r>
       <r>   3.7151  1.0000</r>
       <r>   3.8123  1.0000</r>
       <r>   3.8675  1.0000</r>
       <r>   3.9214  1.0000</r>
       <r>   4.0650  1.0000</r>
       <r>   4.1776  1.0000</r>
       <r>   4.2622  1.0000</r>
       <r>   4.3608  1.0000</r>
       <r>   4.4667  1.0000</r>
       <r>   4.5347  1.0000</r>
       <r>   4.5662  1.0000</r>
       <r>   4.7347  1.0000</r>
       <r>   4.7489  1.0000</r>
       <r>   4.7794  1.0000</r>
       <r>   4.8439  1.0000</r>
       <r>   4.8624  1.0000</r>
       <r>   4.8709  1.0000</r>
       <r>   4.9861  1.0000</r>
       <r>   5.0053  1.0000</r>
       <r>   5.0586  1.0000</r>
       <r>   5.0898  1.0000</r>
       <r>   5.1684  1.0000</r>
       <r>   5.1848  1.0001</r>
       <r>   5.2401  1.0003</r>
       <r>   5.2512  1.0004</r>
       <r>   5.2979  1.0011</r>
       <r>   5.3147  1.0016</r>
       <r>   5.3479  1.0032</r>
       <r>   5.4167  1.0105</r>
       <r>   5.4386  1.0143</r>
       <r>   5.4893  1.0254</r>
       <r>   5.5076  1.0295</r>
       <r>   5.9344  0.0490</r>
       <r>   6.2572 -0.0028</r>
       <r>   6.5833  0.0000</r>
       <r>   6.6296  0.0000</r>
       <r>   7.2758  0.0000</r>
       <r>   7.2850  0.0000</r>
       <r>   7.3342  0.0000</r>
       <r>   7.7955  0.0000</r>
       <r>   7.8118  0.0000</r>
       <r>   7.8277  0.0000</r>
       <r>   7.8751  0.0000</r>
       <r>   7.8773  0.0000</r>
       <r>   7.9920  0.0000</r>
       <r>   7.9998  0.0000</r>
       <r>   8.0462  0.0000</r>
       <r>   8.0481  0.0000</r>
       <r>   8.0943  0.0000</r>
       <r>   8.2025  0.0000</r>
       <r>   8.2452  0.0000</r>
       <r>   8.2812  0.0000</r>
       <r>   8.3158  0.0000</r>
       <r>   8.3562  0.0000</r>
      </set>
      <set comment="kpoint 19">
       <r> -57.6432  1.0000</r>
       <r> -57.6230  1.0000</r>
       <r> -57.6200  1.0000</r>
       <r> -57.6013  1.0000</r>
       <r> -57.5964  1.0000</r>
       <r> -57.5861  1.0000</r>
       <r> -57.5836  1.0000</r>
       <r> -57.5740  1.0000</r>
       <r> -57.4984  1.0000</r>
       <r> -57.4636  1.0000</r>
       <r> -57.4628  1.0000</r>
       <r> -57.4564  1.0000</r>
       <r> -57.4023  1.0000</r>
       <r> -57.3999  1.0000</r>
       <r> -57.3955  1.0000</r>
       <r> -31.9143  1.0000</r>
       <r> -31.9141  1.0000</r>
       <r> -31.8981  1.0000</r>
       <r> -31.8958  1.0000</r>
       <r> -31.8946  1.0000</r>
       <r> -31.8854  1.0000</r>
       <r> -31.8719  1.0000</r>
       <r> -31.8579  1.0000</r>
       <r> -31.8578  1.0000</r>
       <r> -31.8335  1.0000</r>
       <r> -31.8252  1.0000</r>
       <r> -31.8031  1.0000</r>
       <r> -31.7641  1.0000</r>
       <r> -31.7588  1.0000</r>
       <r> -31.7388  1.0000</r>
       <r> -31.7166  1.0000</r>
       <r> -31.7068  1.0000</r>
       <r> -31.7015  1.0000</r>
       <r> -31.6980  1.0000</r>
       <r> -31.6979  1.0000</r>
       <r> -31.6658  1.0000</r>
       <r> -31.6260  1.0000</r>
       <r> -31.6151  1.0000</r>
       <r> -31.5982  1.0000</r>
       <r> -31.4039  1.0000</r>
       <r> -31.3811  1.0000</r>
       <r> -31.3577  1.0000</r>
       <r> -31.3500  1.0000</r>
       <r> -31.3487  1.0000</r>
       <r> -31.3332  1.0000</r>
       <r> -31.3322  1.0000</r>
       <r> -31.3299  1.0000</r>
       <r> -31.3241  1.0000</r>
       <r> -31.2928  1.0000</r>
       <r> -31.2786  1.0000</r>
       <r> -31.2750  1.0000</r>
       <r> -31.2744  1.0000</r>
       <r> -31.2331  1.0000</r>
       <r> -31.2224  1.0000</r>
       <r> -31.2222  1.0000</r>
       <r> -31.2157  1.0000</r>
       <r> -31.1853  1.0000</r>
       <r> -31.1826  1.0000</r>
       <r> -31.1780  1.0000</r>
       <r> -31.1632  1.0000</r>
       <r>   1.1546  1.0000</r>
       <r>   1.6240  1.0000</r>
       <r>   1.7747  1.0000</r>
       <r>   2.1097  1.0000</r>
       <r>   2.4703  1.0000</r>
       <r>   2.7993  1.0000</r>
       <r>   2.8599  1.0000</r>
       <r>   3.2348  1.0000</r>
       <r>   3.4263  1.0000</r>
       <r>   3.5529  1.0000</r>
       <r>   3.6934  1.0000</r>
       <r>   3.7855  1.0000</r>
       <r>   3.7870  1.0000</r>
       <r>   3.7989  1.0000</r>
       <r>   3.8594  1.0000</r>
       <r>   3.9116  1.0000</r>
       <r>   4.0010  1.0000</r>
       <r>   4.0681  1.0000</r>
       <r>   4.1628  1.0000</r>
       <r>   4.2198  1.0000</r>
       <r>   4.2608  1.0000</r>
       <r>   4.3538  1.0000</r>
       <r>   4.3801  1.0000</r>
       <r>   4.4144  1.0000</r>
       <r>   4.5749  1.0000</r>
       <r>   4.6019  1.0000</r>
       <r>   4.6570  1.0000</r>
       <r>   4.7062  1.0000</r>
       <r>   4.7435  1.0000</r>
       <r>   4.8256  1.0000</r>
       <r>   4.8617  1.0000</r>
       <r>   4.9405  1.0000</r>
       <r>   4.9580  1.0000</r>
       <r>   4.9890  1.0000</r>
       <r>   5.0077  1.0000</r>
       <r>   5.0300  1.0000</r>
       <r>   5.0633  1.0000</r>
       <r>   5.1734  1.0000</r>
       <r>   5.1823  1.0001</r>
       <r>   5.1960  1.0001</r>
       <r>   5.2239  1.0002</r>
       <r>   5.2488  1.0003</r>
       <r>   5.2876  1.0009</r>
       <r>   5.3085  1.0014</r>
       <r>   5.3672  1.0046</r>
       <r>   5.5525  1.0354</r>
       <r>   5.5726  1.0340</r>
       <r>   5.8507  0.2901</r>
       <r>   6.6333  0.0000</r>
       <r>   6.6372  0.0000</r>
       <r>   7.3505  0.0000</r>
       <r>   7.3559  0.0000</r>
       <r>   7.3873  0.0000</r>
       <r>   7.9532  0.0000</r>
       <r>   7.9608  0.0000</r>
       <r>   8.0141  0.0000</r>
       <r>   8.0250  0.0000</r>
       <r>   8.0559  0.0000</r>
       <r>   8.0897  0.0000</r>
       <r>   8.1206  0.0000</r>
       <r>   8.1357  0.0000</r>
       <r>   8.1386  0.0000</r>
       <r>   8.1995  0.0000</r>
       <r>   8.2374  0.0000</r>
       <r>   8.2415  0.0000</r>
       <r>   8.2618  0.0000</r>
       <r>   8.3026  0.0000</r>
       <r>   8.3403  0.0000</r>
      </set>
      <set comment="kpoint 20">
       <r> -57.6314  1.0000</r>
       <r> -57.6131  1.0000</r>
       <r> -57.6131  1.0000</r>
       <r> -57.6112  1.0000</r>
       <r> -57.5979  1.0000</r>
       <r> -57.5979  1.0000</r>
       <r> -57.5933  1.0000</r>
       <r> -57.5775  1.0000</r>
       <r> -57.4941  1.0000</r>
       <r> -57.4607  1.0000</r>
       <r> -57.4607  1.0000</r>
       <r> -57.4581  1.0000</r>
       <r> -57.4002  1.0000</r>
       <r> -57.4002  1.0000</r>
       <r> -57.3977  1.0000</r>
       <r> -31.8810  1.0000</r>
       <r> -31.8810  1.0000</r>
       <r> -31.8696  1.0000</r>
       <r> -31.8680  1.0000</r>
       <r> -31.8675  1.0000</r>
       <r> -31.8675  1.0000</r>
       <r> -31.8406  1.0000</r>
       <r> -31.8278  1.0000</r>
       <r> -31.8278  1.0000</r>
       <r> -31.8191  1.0000</r>
       <r> -31.8108  1.0000</r>
       <r> -31.8108  1.0000</r>
       <r> -31.7889  1.0000</r>
       <r> -31.7889  1.0000</r>
       <r> -31.7699  1.0000</r>
       <r> -31.7584  1.0000</r>
       <r> -31.7535  1.0000</r>
       <r> -31.7535  1.0000</r>
       <r> -31.7454  1.0000</r>
       <r> -31.7454  1.0000</r>
       <r> -31.7066  1.0000</r>
       <r> -31.6281  1.0000</r>
       <r> -31.6281  1.0000</r>
       <r> -31.6177  1.0000</r>
       <r> -31.3712  1.0000</r>
       <r> -31.3483  1.0000</r>
       <r> -31.3411  1.0000</r>
       <r> -31.3411  1.0000</r>
       <r> -31.3294  1.0000</r>
       <r> -31.3069  1.0000</r>
       <r> -31.3069  1.0000</r>
       <r> -31.2970  1.0000</r>
       <r> -31.2914  1.0000</r>
       <r> -31.2914  1.0000</r>
       <r> -31.2787  1.0000</r>
       <r> -31.2787  1.0000</r>
       <r> -31.2677  1.0000</r>
       <r> -31.2386  1.0000</r>
       <r> -31.2386  1.0000</r>
       <r> -31.2317  1.0000</r>
       <r> -31.2142  1.0000</r>
       <r> -31.2142  1.0000</r>
       <r> -31.1985  1.0000</r>
       <r> -31.1919  1.0000</r>
       <r> -31.1919  1.0000</r>
       <r>   1.4597  1.0000</r>
       <r>   1.9143  1.0000</r>
       <r>   2.1218  1.0000</r>
       <r>   2.1218  1.0000</r>
       <r>   2.4101  1.0000</r>
       <r>   2.5157  1.0000</r>
       <r>   2.5157  1.0000</r>
       <r>   2.8960  1.0000</r>
       <r>   3.5781  1.0000</r>
       <r>   3.5781  1.0000</r>
       <r>   3.8279  1.0000</r>
       <r>   3.8279  1.0000</r>
       <r>   3.8446  1.0000</r>
       <r>   4.0590  1.0000</r>
       <r>   4.0786  1.0000</r>
       <r>   4.0786  1.0000</r>
       <r>   4.1747  1.0000</r>
       <r>   4.1747  1.0000</r>
       <r>   4.1863  1.0000</r>
       <r>   4.3009  1.0000</r>
       <r>   4.3111  1.0000</r>
       <r>   4.3111  1.0000</r>
       <r>   4.4022  1.0000</r>
       <r>   4.4022  1.0000</r>
       <r>   4.5690  1.0000</r>
       <r>   4.6000  1.0000</r>
       <r>   4.6000  1.0000</r>
       <r>   4.6087  1.0000</r>
       <r>   4.8126  1.0000</r>
       <r>   4.8126  1.0000</r>
       <r>   4.8743  1.0000</r>
       <r>   4.9043  1.0000</r>
       <r>   4.9043  1.0000</r>
       <r>   4.9300  1.0000</r>
       <r>   4.9683  1.0000</r>
       <r>   4.9683  1.0000</r>
       <r>   5.0081  1.0000</r>
       <r>   5.0114  1.0000</r>
       <r>   5.0114  1.0000</r>
       <r>   5.0813  1.0000</r>
       <r>   5.0882  1.0000</r>
       <r>   5.0882  1.0000</r>
       <r>   5.1415  1.0000</r>
       <r>   5.1415  1.0000</r>
       <r>   5.1645  1.0000</r>
       <r>   5.2122  1.0001</r>
       <r>   5.2122  1.0001</r>
       <r>   5.4398  1.0145</r>
       <r>   6.6655  0.0000</r>
       <r>   6.6655  0.0000</r>
       <r>   7.4242  0.0000</r>
       <r>   7.4348  0.0000</r>
       <r>   7.4348  0.0000</r>
       <r>   8.0904  0.0000</r>
       <r>   8.1165  0.0000</r>
       <r>   8.1165  0.0000</r>
       <r>   8.1795  0.0000</r>
       <r>   8.1795  0.0000</r>
       <r>   8.1947  0.0000</r>
       <r>   8.2262  0.0000</r>
       <r>   8.2262  0.0000</r>
       <r>   8.2944  0.0000</r>
       <r>   8.2944  0.0000</r>
       <r>   8.3246  0.0000</r>
       <r>   8.3269  0.0000</r>
       <r>   8.3317  0.0000</r>
       <r>   8.3319  0.0000</r>
       <r>   8.3410  0.0000</r>
      </set>
     </set>
    </set>
   </array>
  </eigenvalues>
 </calculation>
 <structure name="finalpos" >
  <crystal>
   <varray name="basis" >
    <v>       5.95620000      0.00000000      0.00000000</v>
    <v>       0.00000000      5.95620000      0.00000000</v>
    <v>       0.00000000      0.00000000      5.95620000</v>
   </varray>
   <i name="volume">    211.30404789</i>
   <varray name="rec_basis" >
    <v>       0.16789228      0.00000000      0.00000000</v>
    <v>       0.00000000      0.16789228      0.00000000</v>
    <v>       0.00000000      0.00000000      0.16789228</v>
   </varray>
  </crystal>
  <varray name="positions" >
   <v>       0.25134457      0.25134457      0.25134457</v>
   <v>       0.74865543      0.74865543      0.25134457</v>
   <v>       0.74865543      0.25134457      0.74865543</v>
   <v>       0.25134457      0.74865543      0.74865543</v>
   <v>       0.25134457      0.25134457      0.74865543</v>
   <v>       0.74865543      0.74865543      0.74865543</v>
   <v>       0.25134457      0.74865543      0.25134457</v>
   <v>       0.74865543      0.25134457      0.25134457</v>
   <v>       0.50000000      0.50000000      0.00000000</v>
   <v>       0.00000000      0.50000000      0.50000000</v>
   <v>       0.50000000      0.00000000      0.50000000</v>
   <v>       0.50000000      0.00000000      0.00000000</v>
   <v>       0.00000000      0.50000000      0.00000000</v>
   <v>       0.00000000      0.00000000      0.50000000</v>
   <v>       0.00000000      0.00000000      0.00000000</v>
   <v>       0.50000000      0.50000000      0.50000000</v>
  </varray>
 </structure>
</modeling>
