&CONTROL
    restart_mode = 'from_scratch'
    title = 'Fe'
/
ATOMIC_SPECIES
 Ni  26.98  Ni.pbe-nd-rrkjus.UPF
