fccAl                                   
    1.000000000000000     
     4.180734    0.000000    0.000000
     0.000000    4.180734    0.000000
     0.000000    0.000000    4.180734
   1   1   1   1
Direct
  0.000000  0.000000  0.000000
  0.000000  0.516140  0.516140
  0.516140  0.000000  0.516140
  0.516140  0.516140  0.000000

   28   28   28
 -.97678     0.66835E-01  2.8466      6.5437      10.076      12.495      13.375      12.934      11.754      10.343    
  9.0667      8.1080      7.5025      7.2027      7.1430      7.2922      7.6764      8.3587      9.3867      10.725    
  12.181      13.374      13.780      12.808      10.258      6.5991      2.8228     0.31138E-01 0.66834E-01  1.0530    
  3.6818      7.1566      10.437      12.630      13.353      12.837      11.639      10.241      8.9868      8.0498    
  7.4590      7.1666      7.1086      7.2548      7.6303      8.2964      9.3013      10.615      12.057      13.269    
  13.753      12.944      10.630      7.2297      3.6776      1.0302      2.8466      3.6818      5.9178      8.8201    
  11.463      13.095      13.444      12.767      11.547      10.199      9.0203      8.1506      7.6064      7.3399    
  7.2924      7.4361      7.7928      8.4184      9.3606      10.602      11.998      13.238      13.893      13.472    
  11.732      8.9730      5.9814      3.6982      6.5437      7.1567      8.8201      10.911      12.684      13.588    
  13.492      12.659      11.461      10.231      9.1950      8.4485      7.9907      7.7748      7.7495      7.8910    
  8.2159      8.7707      9.6012      10.708      11.991      13.214      14.033      14.071      13.069      11.180    
  8.9796      7.2276      10.076      10.437      11.463      12.684      13.575      13.802      13.357      12.462    
  11.383      10.364      9.5525      8.9940      8.6688      8.5322      8.5432      8.6823      8.9598      9.4096    
  10.072      10.965      12.039      13.141      14.022      14.411      14.090      13.078      11.724      10.566    
  12.495      12.630      13.095      13.588      13.802      13.588      12.998      12.186      11.350      10.641    
  10.131      9.8180      9.6636      9.6283      9.6847      9.8210      10.040      10.359      10.807      11.415    
  12.178      13.027      13.808      14.329      14.441      14.096      13.447      12.810      13.375      13.353    
  13.444      13.492      13.357      12.998      12.470      11.902      11.421      11.099      10.937      10.891    
  10.911      10.972      11.067      11.200      11.365      11.557      11.784      12.072      12.456      12.933    
  13.444      13.875      14.109      14.091      13.866      13.572      12.934      12.837      12.767      12.659    
  12.462      12.186      11.902      11.701      11.644      11.730      11.900      12.076      12.212      12.311    
  12.409      12.537      12.684      12.808      12.873      12.885      12.888      12.937      13.054      13.204    
  13.317      13.332      13.237      13.080      11.754      11.639      11.547      11.461      11.383      11.350    
  11.421      11.644      12.013      12.455      12.855      13.120      13.227      13.241      13.270      13.392    
  13.593      13.775      13.829      13.701      13.419      13.071      12.752      12.510      12.338      12.196    
  12.050      11.896      10.343      10.241      10.199      10.231      10.364      10.641      11.099      11.730    
  12.455      13.123      13.573      13.707      13.542      13.249      13.075      13.191      13.579      14.046    
  14.340      14.298      13.916      13.295      12.590      11.941      11.416      11.020      10.725      10.504    
  9.0667      8.9868      9.0203      9.1950      9.5525      10.131      10.937      11.900      12.855      13.573    
  13.839      13.529      12.762      11.902      11.385      11.494      12.213      13.231      14.101      14.466    
  14.226      13.513      12.546      11.553      10.695      10.034      9.5653      9.2540      8.1080      8.0498    
  8.1506      8.4485      8.9940      9.8180      10.891      12.076      13.120      13.707      13.529      12.485    
  10.867      9.2675      8.3204      8.4219      9.5570      11.303      13.009      14.084      14.253      13.639    
  12.559      11.333      10.214      9.3325      8.7120      8.3193      7.5025      7.4590      7.6064      7.9907    
  8.6688      9.6636      10.911      12.212      13.227      13.542      12.762      10.867      8.3392      5.9884    
  4.6180      4.7104      6.2542      8.7430      11.353      13.266      14.016      13.653      12.588      11.240    
  9.9506      8.9132      8.1830      7.7313      7.2027      7.1665      7.3399      7.7748      8.5322      9.6283    
  10.972      12.311      13.241      13.249      11.902      9.2675      5.9884      3.0416      1.3430      1.4266    
  3.2851      6.3651      9.7265      12.378      13.687      13.619      12.631      11.243      9.8598      8.7290    
  7.9312      7.4428      7.1429      7.1085      7.2924      7.7495      8.5431      9.6847      11.067      12.409    
  13.270      13.075      11.385      8.3204      4.6180      1.3430     -.53369     -.45509      1.5751      4.9847    
  8.7760      11.863      13.515      13.643      12.721      11.326      9.9035      8.7286      7.8974      7.3901    
  7.2922      7.2548      7.4361      7.8910      8.6823      9.8210      11.200      12.537      13.392      13.191    
  11.495      8.4219      4.7104      1.4266     -.45509     -.37381      1.6683      5.0964      8.9071      12.009    
  13.670      13.802      12.882      11.487      10.064      8.8873      8.0532      7.5426      7.6764      7.6303    
  7.7928      8.2158      8.9598      10.040      11.365      12.684      13.593      13.579      12.213      9.5570    
  6.2542      3.2851      1.5751      1.6683      3.5606      6.6911      10.105      12.798      14.133      14.082    
  13.107      11.727      10.350      9.2206      8.4199      7.9252      8.3587      8.2964      8.4183      8.7707    
  9.4096      10.359      11.557      12.808      13.775      14.047      13.231      11.303      8.7430      6.3651    
  4.9847      5.0964      6.6911      9.2510      11.933      13.907      14.705      14.385      13.361      12.050    
  10.791      9.7737      9.0524      8.5987      9.3867      9.3012      9.3605      9.6011      10.072      10.807    
  11.784      12.873      13.829      14.340      14.101      13.009      11.353      9.7265      8.7760      8.9071    
  10.105      11.933      13.726      14.882      15.132      14.604      13.612      12.469      11.421      10.591    
  9.9977      9.6105      10.725      10.615      10.602      10.708      10.965      11.415      12.072      12.885    
  13.701      14.298      14.466      14.084      13.266      12.378      11.863      12.009      12.798      13.907    
  14.882      15.362      15.252      14.682      13.862      13.006      12.259      11.672      11.237      10.929    
  12.181      12.057      11.998      11.991      12.039      12.178      12.456      12.888      13.419      13.916    
  14.226      14.253      14.016      13.687      13.515      13.670      14.133      14.705      15.132      15.252    
  15.058      14.640      14.137      13.660      13.256      12.916      12.623      12.373      13.374      13.269    
  13.238      13.214      13.141      13.027      12.933      12.937      13.071      13.295      13.513      13.639    
  13.653      13.619      13.643      13.802      14.082      14.385      14.604      14.682      14.640      14.543    
  14.451      14.370      14.263      14.086      13.840      13.578      13.780      13.753      13.893      14.033    
  14.022      13.808      13.444      13.054      12.752      12.590      12.546      12.559      12.588      12.631    
  12.721      12.882      13.107      13.361      13.612      13.862      14.137      14.451      14.768      14.995    
  15.031      14.833      14.452      14.042      12.808      12.944      13.473      14.071      14.411      14.329    
  13.875      13.204      12.511      11.941      11.553      11.333      11.240      11.243      11.326      11.487    
  11.727      12.050      12.469      13.006      13.660      14.370      14.995      15.350      15.289      14.769    
  13.958      13.193      10.258      10.630      11.732      13.069      14.090      14.441      14.109      13.317    
  12.338      11.416      10.695      10.214      9.9506      9.8598      9.9035      10.064      10.350      10.791    
  11.421      12.259      13.256      14.263      15.031      15.289      14.814      13.631      12.108      10.817    
  6.5991      7.2297      8.9731      11.180      13.078      14.096      14.091      13.332      12.196      11.020    
  10.034      9.3325      8.9132      8.7290      8.7286      8.8873      9.2206      9.7737      10.591      11.672    
  12.916      14.086      14.833      14.769      13.631      11.579      9.2164      7.3405      2.8228      3.6776    
  5.9815      8.9796      11.724      13.447      13.866      13.237      12.050      10.725      9.5654      8.7120    
  8.1830      7.9312      7.8974      8.0532      8.4199      9.0524      9.9977      11.237      12.623      13.840    
  14.452      13.958      12.108      9.2164      6.0944      3.7149     0.31144E-01  1.0302      3.6982      7.2276    
  10.566      12.810      13.572      13.080      11.896      10.504      9.2540      8.3193      7.7313      7.4428    
  7.3901      7.5426      7.9252      8.5987      9.6105      10.929      12.373      13.578      14.042      13.193    
  10.817      7.3405      3.7149      1.0150     0.66822E-01  1.0530      3.6818      7.1566      10.437      12.630    
  13.353      12.837      11.639      10.241      8.9868      8.0498      7.4590      7.1665      7.1085      7.2548    
  7.6303      8.2964      9.3013      10.615      12.057      13.269      13.753      12.944      10.630      7.2297    
  3.6776      1.0302      1.0530      1.9845      4.4676      7.7286      10.769      12.748      13.324      12.739    
  11.526      10.140      8.9090      7.9930      7.4165      7.1311      7.0746      7.2178      7.5847      8.2349    
  9.2170      10.506      11.934      13.161      13.715      13.059      10.967      7.8142      4.4783      1.9718    
  3.6818      4.4676      6.5697      9.2787      11.710      13.159      13.388      12.658      11.430      10.097    
  8.9411      8.0914      7.5604      7.3003      7.2539      7.3944      7.7427      8.3530      9.2730      10.490    
  11.869      13.117      13.825      13.528      11.976      9.4354      6.6403      4.4893      7.1566      7.7286    
  9.2787      11.210      12.814      13.581      13.400      12.535      11.338      10.125      9.1102      8.3817    
  7.9354      7.7246      7.6999      7.8380      8.1547      8.6952      9.5051      10.587      11.851      13.073    
  13.925      14.049      13.189      11.473      9.4364      7.7996      10.437      10.769      11.710      12.814    
  13.589      13.727      13.235      12.325      11.252      10.250      9.4573      8.9133      8.5971      8.4642    
  8.4749      8.6103      8.8801      9.3171      9.9617      10.833      11.887      12.982      13.877      14.315    
  14.085      13.194      11.962      10.894      12.630      12.748      13.159      13.581      13.727      13.467    
  12.855      12.040      11.212      10.517      10.021      9.7182      9.5702      9.5375      9.5931      9.7253    
  9.9366      10.244      10.678      11.267      12.014      12.852      13.636      14.182      14.342      14.068    
  13.497      12.921      13.353      13.324      13.388      13.400      13.235      12.855      12.318      11.750    
  11.276      10.963      10.810      10.771      10.798      10.861      10.956      11.085      11.241      11.422    
  11.634      11.909      12.279      12.748      13.258      13.701      13.959      13.977      13.793      13.534    
  12.837      12.739      12.658      12.535      12.325      12.040      11.750      11.548      11.494      11.584    
  11.760      11.945      12.091      12.198      12.300      12.423      12.558      12.665      12.713      12.710    
  12.703      12.747      12.865      13.022      13.150      13.184      13.111      12.974      11.639      11.526    
  11.430      11.338      11.253      11.212      11.276      11.494      11.860      12.304      12.715      12.999    
  13.129      13.165      13.204      13.321      13.501      13.654      13.679      13.528      13.233      12.882    
  12.568      12.335      12.176      12.048      11.916      11.774      10.241      10.140      10.097      10.125    
  10.250      10.517      10.963      11.584      12.304      12.981      13.455      13.631      13.519      13.274    
  13.128      13.238      13.589      14.000      14.235      14.149      13.742      13.113      12.415      11.779    
  11.270      10.889      10.607      10.395      8.9868      8.9090      8.9411      9.1103      9.4573      10.021    
  10.810      11.760      12.715      13.455      13.773      13.547      12.878      12.104      11.634      11.738    
  12.399      13.323      14.091      14.371      14.080      13.347      12.382      11.405      10.567      9.9251    
  9.4705      9.1686      8.0498      7.9930      8.0914      8.3817      8.9133      9.7182      10.771      11.945    
  12.999      13.631      13.547      12.639      11.169      9.6922      8.8129      8.9098      9.9682      11.583    
  13.136      14.074      14.151      13.496      12.410      11.198      10.102      9.2421      8.6380      8.2556    
  7.4590      7.4165      7.5604      7.9354      8.5971      9.5702      10.798      12.091      13.129      13.519    
  12.878      11.169      8.8324      6.6359      5.3496      5.4394      6.8929      9.2200      11.632      13.357    
  13.970      13.537      12.452      11.115      9.8487      8.8351      8.1230      7.6823      7.1665      7.1311    
  7.3003      7.7246      8.4642      9.5375      10.861      12.198      13.165      13.274      12.104      9.6922    
  6.6359      3.8637      2.2597      2.3430      4.1043      7.0034      10.134      12.558      13.692      13.526    
  12.507      11.123      9.7631      8.6569      7.8781      7.4013      7.1085      7.0746      7.2539      7.6999    
  8.4749      9.5931      10.956      12.300      13.204      13.128      11.634      8.8129      5.3496      2.2597    
 0.48315     0.56327      2.4936      5.7128      9.2565      12.094      13.548      13.562      12.601      11.208    
  9.8075      8.6575      7.8457      7.3503      7.2548      7.2178      7.3944      7.8379      8.6103      9.7253    
  11.085      12.423      13.321      13.238      11.738      8.9098      5.4394      2.3430     0.56327     0.64663    
  2.5880      5.8238      9.3849      12.236      13.698      13.717      12.758      11.366      9.9644      8.8127    
  7.9984      7.4998      7.6303      7.5847      7.7427      8.1547      8.8801      9.9367      11.241      12.558    
  13.501      13.589      12.399      9.9682      6.8929      4.1043      2.4936      2.5880      4.3808      7.3256    
  10.504      12.966      14.124      13.976      12.970      11.596      10.242      9.1375      8.3563      7.8735    
  8.2964      8.2349      8.3530      8.6952      9.3171      10.244      11.422      12.665      13.654      14.000    
  13.323      11.583      9.2201      7.0034      5.7128      5.8238      7.3256      9.7184      12.197      13.979    
  14.639      14.249      13.205      11.904      10.668      9.6756      8.9730      8.5308      9.3012      9.2170    
  9.2730      9.5051      9.9617      10.678      11.634      12.713      13.679      14.235      14.091      13.136    
  11.632      10.134      9.2565      9.3849      10.504      12.197      13.832      14.849      15.005      14.435    
  13.434      12.305      11.280      10.472      9.8955      9.5193      10.615      10.506      10.490      10.587    
  10.833      11.267      11.909      12.710      13.528      14.150      14.371      14.074      13.357      12.558    
  12.094      12.236      12.966      13.979      14.849      15.242      15.078      14.485      13.664      12.822    
  12.095      11.528      11.110      10.813      12.057      11.934      11.869      11.851      11.887      12.014    
  12.279      12.703      13.233      13.742      14.080      14.151      13.970      13.692      13.548      13.698    
  14.124      14.639      15.005      15.078      14.854      14.424      13.923      13.460      13.073      12.754    
  12.479      12.242      13.269      13.161      13.117      13.073      12.982      12.852      12.748      12.747    
  12.882      13.113      13.347      13.496      13.537      13.526      13.562      13.717      13.976      14.249    
  14.435      14.485      14.424      14.320      14.230      14.162      14.075      13.924      13.704      13.463    
  13.753      13.715      13.825      13.925      13.877      13.636      13.259      12.865      12.568      12.415    
  12.382      12.410      12.452      12.507      12.601      12.758      12.970      13.205      13.434      13.664    
  13.923      14.230      14.550      14.795      14.862      14.705      14.371      13.998      12.944      13.059    
  13.528      14.049      14.315      14.182      13.701      13.022      12.335      11.779      11.405      11.198    
  11.115      11.123      11.208      11.366      11.596      11.904      12.305      12.822      13.460      14.162    
  14.795      15.180      15.174      14.732      14.004      13.304      10.630      10.967      11.976      13.189    
  14.085      14.342      13.959      13.150      12.176      11.270      10.567      10.102      9.8487      9.7631    
  9.8074      9.9644      10.242      10.668      11.280      12.095      13.073      14.075      14.862      15.174    
  14.797      13.743      12.350      11.153      7.2297      7.8142      9.4354      11.473      13.194      14.068    
  13.977      13.184      12.048      10.889      9.9251      9.2421      8.8351      8.6569      8.6575      8.8127    
  9.1375      9.6756      10.472      11.528      12.754      13.924      14.705      14.732      13.743      11.874    
  9.6844      7.9296      3.6776      4.4783      6.6403      9.4364      11.962      13.497      13.793      13.111    
  11.916      10.607      9.4705      8.6379      8.1229      7.8781      7.8457      7.9984      8.3562      8.9730    
  9.8955      11.110      12.479      13.704      14.371      14.004      12.350      9.6844      6.7671      4.5251    
  1.0302      1.9718      4.4893      7.7996      10.894      12.921      13.534      12.973      11.774      10.395    
  9.1686      8.2556      7.6823      7.4013      7.3503      7.4998      7.8735      8.5308      9.5193      10.813    
  12.242      13.463      13.998      13.304      11.153      7.9296      4.5251      1.9692      2.8465      3.6818    
  5.9177      8.8200      11.463      13.095      13.444      12.767      11.547      10.199      9.0203      8.1506    
  7.6063      7.3399      7.2924      7.4361      7.7928      8.4184      9.3606      10.602      11.998      13.238    
  13.893      13.473      11.732      8.9730      5.9814      3.6982      3.6818      4.4676      6.5697      9.2787    
  11.710      13.159      13.388      12.658      11.430      10.097      8.9411      8.0914      7.5604      7.3003    
  7.2539      7.3944      7.7427      8.3530      9.2730      10.490      11.869      13.117      13.825      13.528    
  11.976      9.4354      6.6403      4.4893      5.9177      6.5697      8.3210      10.531      12.428      13.428    
  13.377      12.542      11.314      10.040      8.9581      8.1730      7.6867      7.4518      7.4152      7.5521    
  7.8808      8.4506      9.3089      10.454      11.777      13.028      13.848      13.841      12.747      10.743    
  8.4374      6.6177      8.8201      9.2787      10.531      12.052      13.235      13.667      13.297      12.372    
  11.193      10.042      9.0983      8.4305      8.0267      7.8404      7.8248      7.9581      8.2538      8.7540    
  9.5040      10.516      11.719      12.924      13.842      14.162      13.642      12.350      10.718      9.3664    
  11.463      11.710      12.428      13.235      13.720      13.649      13.054      12.120      11.079      10.135    
  9.4033      8.9118      8.6333      8.5229      8.5416      8.6710      8.9192      9.3177      9.9078      10.715    
  11.711      12.775      13.698      14.244      14.229      13.629      12.693      11.842      13.095      13.159    
  13.428      13.667      13.649      13.283      12.622      11.807      11.012      10.364      9.9144      9.6520    
  9.5354      9.5228      9.5858      9.7110      9.9007      10.173      10.560      11.097      11.795      12.601    
  13.388      13.987      14.258      14.152      13.764      13.331      13.444      13.388      13.377      13.297    
  13.054      12.622      12.066      11.506      11.054      10.770      10.646      10.638      10.692      10.778    
  10.882      11.003      11.136      11.281      11.454      11.688      12.024      12.469      12.975      13.441    
  13.756      13.857      13.770      13.591      12.767      12.658      12.542      12.372      12.120      11.807    
  11.506      11.303      11.254      11.355      11.551      11.766      11.948      12.088      12.207      12.323    
  12.427      12.491      12.494      12.454      12.423      12.455      12.574      12.748      12.909      12.993    
  12.975      12.882      11.547      11.430      11.314      11.193      11.079      11.012      11.054      11.254    
  11.610      12.057      12.494      12.828      13.023      13.119      13.195      13.305      13.438      13.522    
  13.477      13.272      12.948      12.592      12.290      12.082      11.956      11.867      11.775      11.666    
  10.199      10.097      10.040      10.042      10.135      10.364      10.770      11.355      12.057      12.748    
  13.278      13.553      13.575      13.459      13.388      13.492      13.758      14.035      14.135      13.949    
  13.485      12.842      12.163      11.565      11.102      10.766      10.523      10.340      9.0203      8.9411    
  8.9581      9.0983      9.4033      9.9144      10.646      11.551      12.494      13.278      13.714      13.691    
  13.268      12.715      12.373      12.472      12.997      13.696      14.218      14.299      13.893      13.118    
  12.167      11.238      10.459      9.8726      9.4619      9.1888      8.1506      8.0914      8.1730      8.4305    
  8.9118      9.6520      10.638      11.766      12.828      13.553      13.691      13.116      12.020      10.863    
  10.165      10.259      11.131      12.424      13.603      14.212      14.075      13.331      12.240      11.076    
  10.048      9.2526      8.6969      8.3441      7.6064      7.5604      7.6867      8.0267      8.6333      9.5354    
  10.692      11.948      13.023      13.575      13.268      12.020      10.172      8.3772      7.3146      7.4046    
  8.6341      10.559      12.481      13.749      14.036      13.447      12.331      11.034      9.8374      8.8921    
  8.2304      7.8188      7.3399      7.3003      7.4518      7.8403      8.5229      9.5228      10.778      12.088    
  13.119      13.459      12.715      10.863      8.3772      6.0596      4.7054      4.7926      6.3094      8.7544    
  11.313      13.178      13.892      13.505      12.426      11.072      9.7793      8.7421      8.0139      7.5651    
  7.2924      7.2539      7.4152      7.8248      8.5416      9.5858      10.882      12.207      13.195      13.388    
  12.373      10.165      7.3146      4.7054      3.1912      3.2782      4.9561      7.6967      10.624      12.847    
  13.827      13.581      12.541      11.169      9.8346      8.7538      7.9928      7.5251      7.4361      7.3944    
  7.5521      7.9580      8.6710      9.7110      11.003      12.323      13.305      13.492      12.472      10.259    
  7.4047      4.7926      3.2782      3.3695      5.0570      7.8110      10.752      12.986      13.972      13.729    
  12.691      11.320      9.9847      8.9033      8.1411      7.6714      7.7928      7.7427      7.8808      8.2538    
  8.9192      9.9007      11.136      12.427      13.438      13.758      12.997      11.131      8.6341      6.3094    
  4.9561      5.0570      6.6018      9.0842      11.680      13.576      14.309      13.937      12.868      11.522    
  10.236      9.2036      8.4764      8.0248      8.4184      8.3530      8.4506      8.7540      9.3177      10.173    
  11.281      12.491      13.522      14.035      13.696      12.424      10.559      8.7545      7.6967      7.8110    
  9.0842      11.064      13.042      14.357      14.683      14.131      13.049      11.785      10.619      9.6968    
  9.0488      8.6397      9.3606      9.2730      9.3089      9.5040      9.9078      10.560      11.454      12.494    
  13.477      14.135      14.218      13.603      12.481      11.313      10.624      10.752      11.680      13.042    
  14.293      14.970      14.902      14.233      13.218      12.131      11.172      10.429      9.9061      9.5639    
  10.602      10.490      10.454      10.516      10.715      11.097      11.688      12.454      13.272      13.949    
  14.299      14.212      13.749      13.178      12.847      12.986      13.576      14.357      14.970      15.153    
  14.862      14.212      13.393      12.592      11.922      11.414      11.046      10.784      11.998      11.869    
  11.777      11.719      11.711      11.795      12.024      12.423      12.948      13.485      13.893      14.075    
  14.036      13.892      13.827      13.972      14.309      14.683      14.902      14.862      14.564      14.105    
  13.613      13.183      12.847      12.583      12.361      12.165      13.238      13.117      13.028      12.924    
  12.775      12.601      12.469      12.455      12.592      12.842      13.118      13.331      13.447      13.505    
  13.581      13.729      13.937      14.131      14.233      14.212      14.105      13.982      13.900      13.863    
  13.828      13.745      13.595      13.408      13.893      13.825      13.848      13.842      13.698      13.388    
  12.975      12.574      12.290      12.163      12.167      12.240      12.331      12.426      12.541      12.691    
  12.868      13.049      13.218      13.393      13.613      13.900      14.228      14.514      14.658      14.605    
  14.383      14.102      13.473      13.528      13.841      14.162      14.244      13.987      13.441      12.748    
  12.082      11.565      11.238      11.076      11.034      11.071      11.169      11.319      11.522      11.785    
  12.131      12.592      13.183      13.863      14.514      14.971      15.097      14.845      14.319      13.775    
  11.732      11.976      12.747      13.642      14.229      14.258      13.756      12.909      11.956      11.102    
  10.459      10.048      9.8374      9.7793      9.8346      9.9847      10.236      10.619      11.172      11.922    
  12.847      13.828      14.658      15.097      14.958      14.217      13.140      12.175      8.9731      9.4354    
  10.743      12.350      13.629      14.152      13.857      12.993      11.867      10.766      9.8726      9.2526    
  8.8921      8.7421      8.7537      8.9032      9.2036      9.6968      10.429      11.414      12.583      13.745    
  14.605      14.845      14.217      12.795      11.031      9.5744      5.9814      6.6403      8.4374      10.718    
  12.693      13.764      13.770      12.975      11.775      10.523      9.4619      8.6969      8.2304      8.0138    
  7.9928      8.1410      8.4764      9.0488      9.9061      11.046      12.361      13.595      14.383      14.319    
  13.140      11.031      8.6210      6.7205      3.6982      4.4893      6.6177      9.3664      11.842      13.331    
  13.591      12.882      11.666      10.340      9.1888      8.3441      7.8188      7.5651      7.5251      7.6714    
  8.0248      8.6397      9.5639      10.784      12.165      13.408      14.102      13.775      12.175      9.5744    
  6.7205      4.5258      6.5436      7.1566      8.8200      10.911      12.684      13.588      13.492      12.658    
  11.461      10.231      9.1950      8.4485      7.9907      7.7748      7.7495      7.8910      8.2159      8.7707    
  9.6012      10.708      11.991      13.214      14.033      14.071      13.069      11.180      8.9796      7.2276    
  7.1566      7.7286      9.2787      11.210      12.814      13.581      13.400      12.535      11.338      10.125    
  9.1102      8.3817      7.9354      7.7246      7.6999      7.8380      8.1547      8.6953      9.5051      10.587    
  11.851      13.073      13.925      14.049      13.189      11.473      9.4364      7.7996      8.8200      9.2787    
  10.531      12.052      13.235      13.667      13.297      12.372      11.193      10.042      9.0983      8.4305    
  8.0267      7.8404      7.8248      7.9581      8.2539      8.7540      9.5040      10.516      11.719      12.924    
  13.842      14.162      13.642      12.350      10.718      9.3664      10.911      11.210      12.052      13.020    
  13.656      13.680      13.109      12.144      11.033      10.002      9.1872      8.6276      8.3012      8.1615    