fccAl                                   
    1.000000000000000     
     4.180734    0.000000    0.000000
     0.000000    4.180734    0.000000
     0.000000    0.000000    4.180734
   1   1   1   1
Direct
  0.000000  0.000000  0.000000
  0.000000  0.516140  0.516140
  0.516140  0.000000  0.516140
  0.516140  0.516140  0.000000

   28   28   28
 -.97678275761E+00 0.66835449189E-01 0.28465597766E+01 0.65436673743E+01 0.10075648165E+02
 0.12494588705E+02 0.13375109391E+02 0.12934209120E+02 0.11754282194E+02 0.10343452554E+02
 0.90667026912E+01 0.81080476603E+01 0.75025195286E+01 0.72026760385E+01 0.71429531635E+01
 0.72921923923E+01 0.76764281123E+01 0.83587073357E+01 0.93867410065E+01 0.10724656291E+02
 0.12180679382E+02 0.13374067607E+02 0.13780030300E+02 0.12808023771E+02 0.10258443656E+02
 0.65991233022E+01 0.28227962578E+01 0.31137803125E-01 0.66833550053E-01 0.10530458768E+01
 0.36817890323E+01 0.71566384590E+01 0.10437266644E+02 0.12630053394E+02 0.13353371562E+02
 0.12837265357E+02 0.11639402007E+02 0.10240517831E+02 0.89868182966E+01 0.80497761918E+01
 0.74589851387E+01 0.71665511849E+01 0.71085512138E+01 0.72547767532E+01 0.76302756811E+01
 0.82963956089E+01 0.93012506270E+01 0.10614524239E+02 0.12057473852E+02 0.13268949978E+02
 0.13752667338E+02 0.12944117747E+02 0.10629723737E+02 0.72297127981E+01 0.36775654495E+01
 0.10302390615E+01 0.28465633114E+01 0.36817958134E+01 0.59177624539E+01 0.88200663894E+01
 0.11462971133E+02 0.13095052618E+02 0.13444273211E+02 0.12766707763E+02 0.11546795147E+02
 0.10198889856E+02 0.90202955106E+01 0.81505575854E+01 0.76063562134E+01 0.73399257176E+01
 0.72924047720E+01 0.74360870254E+01 0.77928118370E+01 0.84183685470E+01 0.93605529134E+01
 0.10602336743E+02 0.11998239708E+02 0.13237964539E+02 0.13893115233E+02 0.13472499158E+02
 0.11731611583E+02 0.89730437163E+01 0.59814348309E+01 0.36982365449E+01 0.65436834485E+01
 0.71566594732E+01 0.88200812701E+01 0.10910869210E+02 0.12683717201E+02 0.13588452757E+02
 0.13491696090E+02 0.12658511551E+02 0.11461009478E+02 0.10230766582E+02 0.91949582893E+01
 0.84485419754E+01 0.79907401414E+01 0.77747658341E+01 0.77495417802E+01 0.78910195480E+01
 0.82158611442E+01 0.87706675210E+01 0.96011512495E+01 0.10707570480E+02 0.11990675640E+02
 0.13213512421E+02 0.14033164874E+02 0.14071435368E+02 0.13069109635E+02 0.11180098470E+02
 0.89795859593E+01 0.72276295251E+01 0.10075679245E+02 0.10437303725E+02 0.11463002735E+02
 0.12683734359E+02 0.13574597676E+02 0.13801996726E+02 0.13357320213E+02 0.12462193322E+02
 0.11383174795E+02 0.10364040264E+02 0.95524869691E+01 0.89940061811E+01 0.86688288235E+01
 0.85322331673E+01 0.85431538336E+01 0.86823311805E+01 0.89598100949E+01 0.94096098776E+01
 0.10072296197E+02 0.10965085358E+02 0.12039165002E+02 0.13141389763E+02 0.14021829069E+02
 0.14410815875E+02 0.14089607171E+02 0.13077799962E+02 0.11724388119E+02 0.10566207323E+02
 0.12494630269E+02 0.12630101013E+02 0.13095095329E+02 0.13588482125E+02 0.13802009952E+02
 0.13587662523E+02 0.12997648892E+02 0.12186443251E+02 0.11349586747E+02 0.10641201662E+02
 0.10131435359E+02 0.98180100016E+01 0.96636226460E+01 0.96283108689E+01 0.96847314543E+01
 0.98210125104E+01 0.10039932555E+02 0.10358836431E+02 0.10807477011E+02 0.11414788666E+02
 0.12178244474E+02 0.13026661434E+02 0.13807675362E+02 0.14329173270E+02 0.14440971130E+02
 0.14095562711E+02 0.13446870896E+02 0.12810212055E+02 0.13375152171E+02 0.13353419685E+02
 0.13444317190E+02 0.13491728790E+02 0.13357339173E+02 0.12997656160E+02 0.12469979502E+02
 0.11901765473E+02 0.11420826644E+02 0.11098789545E+02 0.10936759412E+02 0.10890691812E+02
 0.10911470172E+02 0.10971793157E+02 0.11067164310E+02 0.11199670654E+02 0.11365103391E+02
 0.11557219822E+02 0.11783509706E+02 0.12072294497E+02 0.12455545463E+02 0.12933061140E+02
 0.13444186784E+02 0.13875130394E+02 0.14108736175E+02 0.14091299970E+02 0.13865692850E+02
 0.13571907152E+02 0.12934244548E+02 0.12837305100E+02 0.12766744447E+02 0.12658539780E+02
 0.12462211220E+02 0.12186452173E+02 0.11901768433E+02 0.11700591193E+02 0.11644167873E+02
 0.11730287957E+02 0.11899834345E+02 0.12076249247E+02 0.12212004583E+02 0.12310684261E+02
 0.12409460722E+02 0.12537180049E+02 0.12683885846E+02 0.12807907212E+02 0.12873385234E+02
 0.12884660570E+02 0.12887741948E+02 0.12937222403E+02 0.13053853854E+02 0.13204083792E+02
 0.13317407554E+02 0.13331804759E+02 0.13236617115E+02 0.13080359227E+02 0.11754306484E+02
 0.11639429563E+02 0.11546820784E+02 0.11461029542E+02 0.11383188063E+02 0.11349594060E+02
 0.11420829810E+02 0.11644168715E+02 0.12013398018E+02 0.12454943455E+02 0.12855355631E+02
 0.13119791962E+02 0.13227235801E+02 0.13241368523E+02 0.13269824508E+02 0.13391577064E+02
 0.13592686793E+02 0.13774933713E+02 0.13829096236E+02 0.13700806163E+02 0.13418615888E+02
 0.13071400429E+02 0.12752333911E+02 0.12510484208E+02 0.12338198636E+02 0.12195640261E+02
 0.12049520140E+02 0.11896161781E+02 0.10343466507E+02 0.10240534067E+02 0.10198905087E+02
 0.10230778608E+02 0.10364048413E+02 0.10641206392E+02 0.11098791716E+02 0.11730288417E+02
 0.12454943120E+02 0.13123230951E+02 0.13572883306E+02 0.13707158052E+02 0.13541760523E+02
 0.13248791616E+02 0.13075320184E+02 0.13190909619E+02 0.13579266561E+02 0.14046433820E+02
 0.14339737800E+02 0.14297943795E+02 0.13916136903E+02 0.13294602841E+02 0.12590442807E+02
 0.11940990429E+02 0.11416043940E+02 0.11020016951E+02 0.10725164746E+02 0.10504160119E+02
 0.90667091700E+01 0.89868260353E+01 0.90203027469E+01 0.91949639342E+01 0.95524907705E+01
 0.10131437536E+02 0.10936760175E+02 0.11899833818E+02 0.12855354225E+02 0.13572882018E+02
 0.13839021684E+02 0.13528721423E+02 0.12761846932E+02 0.11902338912E+02 0.11385396736E+02
 0.11494486483E+02 0.12213043801E+02 0.13230611657E+02 0.14100760386E+02 0.14466387901E+02
 0.14225519881E+02 0.13513010317E+02 0.12545694101E+02 0.11553121621E+02 0.10694818196E+02
 0.10034185072E+02 0.95653491496E+01 0.92539589841E+01 0.81080491445E+01 0.80497777287E+01
 0.81505586770E+01 0.84485424140E+01 0.89940060997E+01 0.98180096076E+01 0.10890691057E+02
 0.12076247844E+02 0.13119789841E+02 0.13707155780E+02 0.13528719893E+02 0.12484946183E+02
 0.10867165052E+02 0.92674964172E+01 0.83204258592E+01 0.84218729452E+01 0.95569869778E+01
 0.11303116639E+02 0.13009167528E+02 0.14083536970E+02 0.14252725438E+02 0.13639312718E+02
 0.12559431711E+02 0.11333065620E+02 0.10214163953E+02 0.93325177760E+01 0.87119774918E+01
 0.83192950020E+01 0.75025173021E+01 0.74589815729E+01 0.76063519148E+01 0.79907356910E+01
 0.86688248288E+01 0.96636196370E+01 0.10911468342E+02 0.12212003668E+02 0.13227235306E+02
 0.13541759947E+02 0.12761845755E+02 0.10867163756E+02 0.83392089211E+01 0.59884174897E+01
 0.46179510530E+01 0.47103881470E+01 0.62541968805E+01 0.87429673095E+01 0.11352603606E+02
 0.13265821606E+02 0.14016064961E+02 0.13653238861E+02 0.12588041993E+02 0.11240298596E+02
 0.99506216420E+01 0.89132204985E+01 0.81829877976E+01 0.77312570190E+01 0.72026706164E+01
 0.71665430492E+01 0.73399164458E+01 0.77747567693E+01 0.85322255413E+01 0.96283059054E+01
 0.10971791841E+02 0.12310686865E+02 0.13241374273E+02 0.13248798236E+02 0.11902343159E+02
 0.92674969225E+01 0.59884162076E+01 0.30415668024E+01 0.13429622484E+01 0.14265950010E+01
 0.32850933215E+01 0.63651262731E+01 0.97265046495E+01 0.12378422168E+02 0.13687067031E+02
 0.13618774842E+02 0.12631313767E+02 0.11242524392E+02 0.98598205373E+01 0.87290391825E+01
 0.79311574955E+01 0.74427811232E+01 0.71429448279E+01 0.71085391199E+01 0.72923913345E+01
 0.77495290897E+01 0.85431438617E+01 0.96847263763E+01 0.11067166305E+02 0.12409471057E+02
 0.13269842384E+02 0.13075341352E+02 0.11385414394E+02 0.83204351850E+01 0.46179526142E+01
 0.13429608249E+01 -.53369199838E+00 -.45508873437E+00 0.15750882919E+01 0.49846707005E+01
 0.87760072396E+01 0.11863233248E+02 0.13514643025E+02 0.13642555521E+02 0.12720668716E+02
 0.11325795385E+02 0.99034879401E+01 0.87286212686E+01 0.78973781659E+01 0.73900703266E+01
 0.72921813759E+01 0.72547614931E+01 0.74360706629E+01 0.78910049014E+01 0.86823209747E+01
 0.98210098832E+01 0.11199679038E+02 0.12537201903E+02 0.13391611901E+02 0.13190951753E+02
 0.11494525713E+02 0.84219001096E+01 0.47104004458E+01 0.14265965916E+01 -.45509072748E+00
 -.37380718842E+00 0.16682867106E+01 0.50963730219E+01 0.89071055806E+01 0.12009353638E+02
 0.13669579530E+02 0.13801764392E+02 0.12881933448E+02 0.11487344580E+02 0.10064131000E+02
 0.88873042993E+01 0.80532350637E+01 0.75426319716E+01 0.76764145826E+01 0.76302580028E+01
 0.77927937860E+01 0.82158462209E+01 0.89598016688E+01 0.10039934465E+02 0.11365119979E+02
 0.12683920573E+02 0.13592739721E+02 0.13579331572E+02 0.12213108480E+02 0.95570381592E+01
 0.62542272618E+01 0.32851041366E+01 0.15750869468E+01 0.16682823052E+01 0.35606256792E+01
 0.66911172511E+01 0.10104645130E+02 0.12797619037E+02 0.14132837022E+02 0.14081742363E+02
 0.13107233145E+02 0.11727339632E+02 0.10350065218E+02 0.92206325605E+01 0.84198870619E+01
 0.79251902446E+01 0.83586913645E+01 0.82963760388E+01 0.84183496536E+01 0.87706533580E+01
 0.94096042322E+01 0.10358843402E+02 0.11557244033E+02 0.12807952589E+02 0.13775000831E+02
 0.14046517026E+02 0.13230698054E+02 0.11303190567E+02 0.87430172768E+01 0.63651493972E+01
 0.49846724899E+01 0.50963639048E+01 0.66911084195E+01 0.92510140470E+01 0.11933276723E+02
 0.13907153054E+02 0.14705259770E+02 0.14385379102E+02 0.13360835481E+02 0.12049833977E+02
 0.10790562006E+02 0.97737093489E+01 0.90524489791E+01 0.85986910720E+01 0.93867227502E+01
 0.93012296882E+01 0.93605338054E+01 0.96011382859E+01 0.10072293236E+02 0.10807487922E+02
 0.11783538723E+02 0.12873436077E+02 0.13829169714E+02 0.14339829074E+02 0.14100857645E+02
 0.13009254752E+02 0.11352666824E+02 0.97265373217E+01 0.87760119822E+01 0.89070921842E+01
 0.10104626463E+02 0.11933264190E+02 0.13725557928E+02 0.14881663546E+02 0.15131597025E+02
 0.14604328508E+02 0.13611876686E+02 0.12469135104E+02 0.11421490840E+02 0.10590851696E+02
 0.99977292587E+01 0.96104748532E+01 0.10724636663E+02 0.10614503277E+02 0.10602318750E+02
 0.10707559503E+02 0.10965084851E+02 0.11414801844E+02 0.12072324731E+02 0.12884710847E+02
 0.13700877173E+02 0.14298031501E+02 0.14466482348E+02 0.14083623768E+02 0.13265886705E+02
 0.12378457171E+02 0.11863238281E+02 0.12009336723E+02 0.12797592669E+02 0.13907129512E+02
 0.14881650813E+02 0.15362409046E+02 0.15252203400E+02 0.14682343309E+02 0.13861525884E+02
 0.13005863058E+02 0.12258627904E+02 0.11671629540E+02 0.11237235055E+02 0.10928888185E+02
 0.12180660928E+02 0.12057455987E+02 0.11998225892E+02 0.11990668919E+02 0.12039167844E+02
 0.12178259131E+02 0.12455574321E+02 0.12887787115E+02 0.13418677724E+02 0.13916212090E+02
 0.14225600398E+02 0.14252799628E+02 0.14016120808E+02 0.13687096489E+02 0.13514645010E+02
 0.13669560108E+02 0.14132806866E+02 0.14705230110E+02 0.15131575873E+02 0.15252193656E+02
 0.15057899202E+02 0.14639690202E+02 0.14136521723E+02 0.13659936322E+02 0.13255568398E+02
 0.12916426094E+02 0.12623018868E+02 0.12372961547E+02 0.13374054421E+02 0.13268939867E+02
 0.13237959465E+02 0.13213513638E+02 0.13141398168E+02 0.13026678161E+02 0.12933087795E+02
 0.12937260511E+02 0.13071450112E+02 0.13294661376E+02 0.13513071491E+02 0.13639367729E+02
 0.13653278741E+02 0.13618793509E+02 0.13642552046E+02 0.13801743339E+02 0.14081712028E+02
 0.14385348500E+02 0.14604304468E+02 0.14682328848E+02 0.14639684576E+02 0.14543447946E+02
 0.14450985002E+02 0.14370118758E+02 0.14262722658E+02 0.14086261732E+02 0.13840003253E+02
 0.13577777061E+02 0.13780026217E+02 0.13752669012E+02 0.13893122697E+02 0.14033177061E+02
 0.14021844944E+02 0.13807694949E+02 0.13444211328E+02 0.13053884859E+02 0.12752371624E+02
 0.12590485046E+02 0.12545736097E+02 0.12559467140E+02 0.12588064857E+02 0.12631320414E+02
 0.12720659162E+02 0.12881911404E+02 0.13107204764E+02 0.13360807381E+02 0.13611854055E+02
 0.13861511285E+02 0.14136514855E+02 0.14450983337E+02 0.14767735703E+02 0.14995058174E+02
 0.15031274188E+02 0.14832848105E+02 0.14452053255E+02 0.14041517240E+02 0.12808029993E+02
 0.12944131919E+02 0.13472519340E+02 0.14071458079E+02 0.14410838227E+02 0.14329194538E+02
 0.13875151965E+02 0.13204107729E+02 0.12510511295E+02 0.11941019050E+02 0.11553148045E+02
 0.11333085314E+02 0.11240307833E+02 0.11242521538E+02 0.11325781428E+02 0.11487322799E+02
 0.11727314595E+02 0.12049810333E+02 0.12469116527E+02 0.13005851495E+02 0.13659931613E+02
 0.14370118788E+02 0.14995059705E+02 0.15350154226E+02 0.15289313407E+02 0.14769474109E+02
 0.13957820461E+02 0.13193035808E+02 0.10258457520E+02 0.10629746501E+02 0.11731639718E+02
 0.13069137673E+02 0.14089630821E+02 0.14440989527E+02 0.14108751563E+02 0.13317423005E+02
 0.12338215722E+02 0.11416061597E+02 0.10694833385E+02 0.10214173251E+02 0.99506227231E+01
 0.98598129621E+01 0.99034732021E+01 0.10064111964E+02 0.10350045288E+02 0.10790544400E+02
 0.11421478098E+02 0.12258621446E+02 0.13255568040E+02 0.14262726454E+02 0.15031279056E+02
 0.15289316474E+02 0.14814346900E+02 0.13630553231E+02 0.12108077186E+02 0.10816661860E+02
 0.65991394005E+01 0.72297370666E+01 0.89730715575E+01 0.11180123223E+02 0.13077816753E+02
 0.14095571260E+02 0.14091304029E+02 0.13331808821E+02 0.12195646709E+02 0.11020025128E+02
 0.10034192316E+02 0.93325212665E+01 0.89132185873E+01 0.87290318458E+01 0.87286099016E+01
 0.88872911322E+01 0.92206200006E+01 0.97736995562E+01 0.10590846391E+02 0.11671629679E+02
 0.12916431285E+02 0.14086269924E+02 0.14832856237E+02 0.14769479556E+02 0.13630555170E+02
 0.11578648416E+02 0.92164385368E+01 0.73405345124E+01 0.28228090646E+01 0.36775842902E+01
 0.59814543358E+01 0.89795990491E+01 0.11724390264E+02 0.13446863148E+02 0.13865680881E+02
 0.13236607048E+02 0.12049515047E+02 0.10725164119E+02 0.95653504161E+01 0.87119780821E+01
 0.81829863054E+01 0.79311538210E+01 0.78973731856E+01 0.80532301632E+01 0.84198836941E+01
 0.90524484340E+01 0.99977325716E+01 0.11237242647E+02 0.12623029848E+02 0.13840015132E+02
 0.14452062847E+02 0.13957825533E+02 0.12108077749E+02 0.92164369417E+01 0.60944097204E+01
 0.37149312840E+01 0.31144042822E-01 0.10302488207E+01 0.36982436116E+01 0.72276268223E+01
 0.10566191309E+02 0.12810185572E+02 0.13571877870E+02 0.13080334735E+02 0.11896145638E+02
 0.10504151717E+02 0.92539556227E+01 0.83192941693E+01 0.77312573678E+01 0.74427823136E+01
 0.73900725981E+01 0.75426358323E+01 0.79251962642E+01 0.85986997896E+01 0.96104866654E+01
 0.10928902848E+02 0.12372977382E+02 0.13577790824E+02 0.14041525458E+02 0.13193036757E+02
 0.10816656793E+02 0.73405271091E+01 0.37149259167E+01 0.10149870680E+01 0.66822387920E-01
 0.10530367005E+01 0.36817813475E+01 0.71566310528E+01 0.10437259204E+02 0.12630046730E+02
 0.13353366602E+02 0.12837262132E+02 0.11639399624E+02 0.10240515208E+02 0.89868147208E+01
 0.80497715819E+01 0.74589799125E+01 0.71665458418E+01 0.71085460256E+01 0.72547718781E+01
 0.76302716158E+01 0.82963935535E+01 0.93012523786E+01 0.10614531545E+02 0.12057487464E+02
 0.13268968831E+02 0.13752688312E+02 0.12944136034E+02 0.10629734551E+02 0.72297138462E+01
 0.36775582348E+01 0.10302277934E+01 0.10530343840E+01 0.19845316128E+01 0.44675867182E+01
 0.77286140110E+01 0.10769077742E+02 0.12747702674E+02 0.13324012858E+02 0.12739239926E+02
 0.11526000633E+02 0.10139855537E+02 0.89090065880E+01 0.79930330994E+01 0.74164588070E+01
 0.71310731476E+01 0.70746014007E+01 0.72177742448E+01 0.75846731622E+01 0.82349447879E+01
 0.92169685369E+01 0.10505595805E+02 0.11934424333E+02 0.13161074376E+02 0.13715404793E+02
 0.13059137144E+02 0.10966803535E+02 0.78142222489E+01 0.44782501664E+01 0.19717996832E+01
 0.36817843766E+01 0.44675932540E+01 0.65697204966E+01 0.92787021115E+01 0.11709884977E+02
 0.13158967538E+02 0.13387899802E+02 0.12658336932E+02 0.11429955284E+02 0.10097103810E+02
 0.89411336640E+01 0.80913850741E+01 0.75603787994E+01 0.73003095789E+01 0.72539232903E+01
 0.73944057324E+01 0.77427112818E+01 0.83529924705E+01 0.92730382831E+01 0.10490048932E+02
 0.11869111890E+02 0.13116531503E+02 0.13824631494E+02 0.13527920037E+02 0.11976042579E+02
 0.94353791960E+01 0.66402894687E+01 0.44893084026E+01 0.71566467647E+01 0.77286346658E+01
 0.92787167501E+01 0.11209679676E+02 0.12814215234E+02 0.13580861124E+02 0.13400356862E+02
 0.12535306335E+02 0.11337747299E+02 0.10124626306E+02 0.91102461175E+01 0.83817370270E+01
 0.79353750120E+01 0.77246355350E+01 0.76999139018E+01 0.78379556039E+01 0.81546848336E+01
 0.86952458312E+01 0.95050798838E+01 0.10587462265E+02 0.11851253138E+02 0.13072866610E+02
 0.13924508007E+02 0.14048609873E+02 0.13188534840E+02 0.11472943954E+02 0.94364023819E+01
 0.77996430520E+01 0.10437290049E+02 0.10769114335E+02 0.11709916044E+02 0.12814232034E+02
 0.13588543582E+02 0.13727322350E+02 0.13235310100E+02 0.12325004078E+02 0.11252497883E+02
 0.10250429062E+02 0.94572807171E+01 0.89133303872E+01 0.85970817578E+01 0.84642341997E+01
 0.84748683852E+01 0.86103150203E+01 0.88800939186E+01 0.93171467103E+01 0.99617095963E+01
 0.10832887604E+02 0.11887356619E+02 0.12981544692E+02 0.13876974834E+02 0.14314626593E+02
 0.14085079731E+02 0.13194261521E+02 0.11962257067E+02 0.10893713952E+02 0.12630087976E+02
 0.12747749565E+02 0.13159009367E+02 0.13580889735E+02 0.13727335154E+02 0.13467342009E+02
 0.12854545205E+02 0.12039601135E+02 0.11211652432E+02 0.10517301540E+02 0.10021161320E+02
 0.97181557259E+01 0.95701775428E+01 0.95374551491E+01 0.95930655980E+01 0.97252863232E+01
 0.99366436436E+01 0.10244126712E+02 0.10677581063E+02 0.11267169843E+02 0.12013595129E+02
 0.12851524918E+02 0.13636248660E+02 0.14182016479E+02 0.14342397630E+02 0.14068485368E+02
 0.13497020069E+02 0.12920745923E+02 0.13353408797E+02 0.13324059967E+02 0.13387942610E+02
 0.13400388507E+02 0.13235328315E+02 0.12854552116E+02 0.12317681847E+02 0.11750330142E+02
 0.11276161327E+02 0.10962941093E+02 0.10809511639E+02 0.10770921339E+02 0.10797534643E+02
 0.10861234892E+02 0.10956461577E+02 0.11084546185E+02 0.11241346762E+02 0.11421549240E+02
 0.11634029770E+02 0.11908605323E+02 0.12279059142E+02 0.12747947485E+02 0.13258493979E+02
 0.13700761795E+02 0.13959112914E+02 0.13977376955E+02 0.13793163165E+02 0.13534083128E+02
 0.12837296719E+02 0.12739278500E+02 0.12658372368E+02 0.12535333453E+02 0.12325021134E+02
 0.12039609533E+02 0.11750332877E+02 0.11548455759E+02 0.11493829446E+02 0.11583799817E+02
 0.11759690827E+02 0.11945126436E+02 0.12091239940E+02 0.12198491869E+02 0.12300328753E+02
 0.12423236976E+02 0.12557658692E+02 0.12664897656E+02 0.12713082886E+02 0.12709805893E+02
 0.12702819510E+02 0.12747402928E+02 0.12864861543E+02 0.13022446569E+02 0.13150062368E+02
 0.13184447747E+02 0.13111259041E+02 0.12973522969E+02 0.11639422999E+02 0.11526027101E+02
 0.11429979862E+02 0.11337766479E+02 0.11252510506E+02 0.11211659330E+02 0.11276164270E+02
 0.11493830208E+02 0.11860121547E+02 0.12304281191E+02 0.12715395878E+02 0.12998700027E+02
 0.13129356707E+02 0.13164858541E+02 0.13204430493E+02 0.13320944851E+02 0.13501218291E+02
 0.13654268540E+02 0.13679332546E+02 0.13528138812E+02 0.13232839595E+02 0.12882328556E+02
 0.12567631790E+02 0.12335295512E+02 0.12175735622E+02 0.12047582887E+02 0.11915724848E+02
 0.11774151869E+02 0.10240528455E+02 0.10139871033E+02 0.10097118429E+02 0.10124637947E+02
 0.10250437064E+02 0.10517306292E+02 0.10962943351E+02 0.11583800341E+02 0.12304280870E+02
 0.12980892401E+02 0.13455142182E+02 0.13630820207E+02 0.13518619353E+02 0.13274325852E+02
 0.13127667508E+02 0.13237634483E+02 0.13588872094E+02 0.13999521417E+02 0.14234873540E+02
 0.14149476465E+02 0.13742252198E+02 0.13112941671E+02 0.12414678641E+02 0.11778782740E+02
 0.11269856966E+02 0.10889048716E+02 0.10606928619E+02 0.10395370200E+02 0.89868210442E+01
 0.89090142049E+01 0.89411409645E+01 0.91102521077E+01 0.94572851450E+01 0.10021164286E+02
 0.10809513149E+02 0.11759690797E+02 0.12715394630E+02 0.13455140827E+02 0.13773384206E+02
 0.13546999111E+02 0.12878074248E+02 0.12103789926E+02 0.11634045517E+02 0.11737602527E+02
 0.12398682174E+02 0.13323036798E+02 0.14090639710E+02 0.14371295837E+02 0.14079624040E+02
 0.13346793139E+02 0.12381915633E+02 0.11405211304E+02 0.10567118604E+02 0.99250630502E+01
 0.94704866720E+01 0.91686164175E+01 0.80497737862E+01 0.79930353695E+01 0.80913870846E+01
 0.83817387121E+01 0.89133319185E+01 0.97181571652E+01 0.10770922303E+02 0.11945126238E+02
 0.12998698353E+02 0.13630817735E+02 0.13546997219E+02 0.12638810779E+02 0.11168684044E+02
 0.96921975885E+01 0.88129086504E+01 0.89097835982E+01 0.99681566972E+01 0.11583204550E+02
 0.13136376519E+02 0.14073872015E+02 0.14150752700E+02 0.13496089301E+02 0.12409644928E+02
 0.11197962280E+02 0.10101899472E+02 0.92420525448E+01 0.86379501119E+01 0.82556304135E+01
 0.74589795028E+01 0.74164569767E+01 0.75603763695E+01 0.79353727849E+01 0.85970804522E+01
 0.95701775388E+01 0.10797535671E+02 0.12091241108E+02 0.13129357059E+02 0.13518618463E+02
 0.12878072252E+02 0.11168682174E+02 0.88323786354E+01 0.66359124193E+01 0.53496042479E+01
 0.54393625039E+01 0.68928527637E+01 0.92200061515E+01 0.11631601246E+02 0.13356799316E+02
 0.13969522364E+02 0.13536609459E+02 0.12452436931E+02 0.11115125914E+02 0.98487280300E+01
 0.88350892071E+01 0.81229529992E+01 0.76823443998E+01 0.71665433741E+01 0.71310677475E+01
 0.73003030853E+01 0.77246296003E+01 0.84642302511E+01 0.95374542753E+01 0.10861237512E+02
 0.12198497418E+02 0.13164865565E+02 0.13274332118E+02 0.12103792996E+02 0.96921970703E+01
 0.66359107308E+01 0.38637353262E+01 0.22597165523E+01 0.23430008289E+01 0.41043097828E+01
 0.70034044518E+01 0.10134360104E+02 0.12558292560E+02 0.13691548180E+02 0.13525720524E+02
 0.12506964869E+02 0.11123471508E+02 0.97631442145E+01 0.86569307943E+01 0.78780874482E+01
 0.74013012473E+01 0.71085415983E+01 0.70745928489E+01 0.72539133322E+01 0.76999050127E+01
 0.84748628060E+01 0.95930653948E+01 0.10956468299E+02 0.12300342681E+02 0.13204449975E+02
 0.13127688289E+02 0.11634061714E+02 0.88129166308E+01 0.53496052173E+01 0.22597150943E+01
 0.48315306053E+00 0.56326877137E+00 0.24936468781E+01 0.57128376394E+01 0.92565486992E+01
 0.12093624934E+02 0.13548010465E+02 0.13562205600E+02 0.12601070570E+02 0.11208193259E+02
 0.98074651499E+01 0.86574682384E+01 0.78457474905E+01 0.73503040257E+01 0.72547653442E+01
 0.72177629745E+01 0.73943932076E+01 0.78379450806E+01 0.86103095414E+01 0.97252889396E+01
 0.11084559675E+02 0.12423262726E+02 0.13320981397E+02 0.13237676043E+02 0.11737639845E+02
 0.89098088651E+01 0.54393737713E+01 0.23430021952E+01 0.56326679900E+00 0.64663466905E+00
 0.25879962892E+01 0.58237790753E+01 0.93849099920E+01 0.12235697756E+02 0.13698443333E+02
 0.13717028638E+02 0.12758182435E+02 0.11365828231E+02 0.99644342992E+01 0.88127093698E+01
 0.79983708520E+01 0.74997858533E+01 0.76302626777E+01 0.75846595029E+01 0.77426970550E+01
 0.81546740057E+01 0.88800901902E+01 0.99366507714E+01 0.11241368427E+02 0.12557697252E+02
 0.13501272745E+02 0.13588936072E+02 0.12398744107E+02 0.99682048252E+01 0.68928808597E+01
 0.41043193032E+01 0.24936448281E+01 0.25879914298E+01 0.43808279770E+01 0.73256104329E+01
 0.10503827330E+02 0.12965622932E+02 0.14124351878E+02 0.13975945324E+02 0.12970496187E+02
 0.11596309356E+02 0.10241865333E+02 0.91374889839E+01 0.83562589551E+01 0.78735216839E+01
 0.82963818750E+01 0.82349289234E+01 0.83529771084E+01 0.86952354924E+01 0.93171454870E+01
 0.10244138597E+02 0.11421578195E+02 0.12664946512E+02 0.13654336764E+02 0.13999602904E+02
 0.13323119272E+02 0.11583273673E+02 0.92200516779E+01 0.70034240915E+01 0.57128368575E+01
 0.58237680910E+01 0.73256004877E+01 0.97184491790E+01 0.12197167445E+02 0.13979484883E+02
 0.14638767063E+02 0.14248655324E+02 0.13204846829E+02 0.11904208352E+02 0.10668357298E+02
 0.96756423847E+01 0.89729903750E+01 0.85308064214E+01 0.93012378632E+01 0.92169508114E+01
 0.92730222908E+01 0.95050703715E+01 0.99617106634E+01 0.10677596426E+02 0.11634063009E+02
 0.12713136666E+02 0.13679406580E+02 0.14234962374E+02 0.14090731852E+02 0.13136457059E+02
 0.11631657513E+02 0.10134386492E+02 0.92565482234E+01 0.93848925187E+01 0.10503805776E+02
 0.12197153365E+02 0.13832278876E+02 0.14848602782E+02 0.15004669300E+02 0.14434698214E+02
 0.13434266290E+02 0.12305234027E+02 0.11280071309E+02 0.10471522344E+02 0.98955373632E+01
 0.95193306862E+01 0.10614515030E+02 0.10505577555E+02 0.10490033652E+02 0.10587454360E+02
 0.10832890675E+02 0.11267186904E+02 0.11908639124E+02 0.12709858459E+02 0.13528209812E+02
 0.14149561191E+02 0.14371384363E+02 0.14073950759E+02 0.13356855435E+02 0.12558318787E+02
 0.12093622160E+02 0.12235674395E+02 0.12965591634E+02 0.13979457988E+02 0.14848588332E+02
 0.15241786864E+02 0.15078062634E+02 0.14484728560E+02 0.13663763447E+02 0.12822428717E+02
 0.12095271133E+02 0.11528051668E+02 0.11109844458E+02 0.10812718445E+02 0.12057471563E+02
 0.11934408781E+02 0.11869100463E+02 0.11851249115E+02 0.11887362514E+02 0.12013612969E+02
 0.12279090776E+02 0.12702866254E+02 0.13232900936E+02 0.13742324169E+02 0.14079698470E+02
 0.14150818408E+02 0.13969568307E+02 0.13691567429E+02 0.13548002880E+02 0.13698415595E+02
 0.14124314953E+02 0.14638732266E+02 0.15004644666E+02 0.15078051116E+02 0.14853750737E+02
 0.14423511601E+02 0.13923310336E+02 0.13459649861E+02 0.13073447692E+02 0.12754016011E+02
 0.12478757268E+02 0.12242472451E+02 0.13268957783E+02 0.13161066310E+02 0.13116528552E+02
 0.13072870110E+02 0.12981555499E+02 0.12851543963E+02 0.12747975992E+02 0.12747441864E+02
 0.12882377393E+02 0.13112997111E+02 0.13346848704E+02 0.13496136385E+02 0.13536639745E+02
 0.13525728847E+02 0.13562191945E+02 0.13716998264E+02 0.13975906931E+02 0.14248618103E+02
 0.14434669080E+02 0.14484710632E+02 0.14423504239E+02 0.14319617674E+02 0.14230068991E+02
 0.14161670365E+02 0.14074780476E+02 0.13924066488E+02 0.13704074298E+02 0.13462625692E+02
 0.13752686091E+02 0.13715408316E+02 0.13824640797E+02 0.13924521971E+02 0.13876992324E+02
 0.13636269573E+02 0.13258519383E+02 0.12864892661E+02 0.12567668462E+02 0.12414718225E+02
 0.12381953011E+02 0.12409673720E+02 0.12452451458E+02 0.12506962102E+02 0.12601051263E+02
 0.12758150960E+02 0.12970459166E+02 0.13204811167E+02 0.13434237369E+02 0.13663744018E+02
 0.13923300265E+02 0.14230065803E+02 0.14550125187E+02 0.14794539109E+02 0.14861964734E+02
 0.14705324123E+02 0.14370809561E+02 0.13997837832E+02 0.12944143961E+02 0.13059153004E+02
 0.13527941722E+02 0.14048633754E+02 0.14314649707E+02 0.14182038094E+02 0.13700783326E+02
 0.13022470058E+02 0.12335321554E+02 0.11778809360E+02 0.11405234363E+02 0.11197976979E+02
 0.11115128550E+02 0.11123460770E+02 0.11208170659E+02 0.11365797617E+02 0.11596275788E+02
 0.11904176851E+02 0.12305208566E+02 0.12822411515E+02 0.13459640983E+02 0.14161667793E+02
 0.14794539493E+02 0.15179530565E+02 0.15173789807E+02 0.14732399841E+02 0.14004230492E+02
 0.13303806190E+02 0.10629750044E+02 0.10966827880E+02 0.11976071920E+02 0.13188563496E+02
 0.14085103400E+02 0.14342415611E+02 0.13959127658E+02 0.13150077098E+02 0.12175751865E+02
 0.11269873362E+02 0.10567131661E+02 0.10101905361E+02 0.98487242266E+01 0.97631303725E+01
 0.98074431040E+01 0.99644073929E+01 0.10241837462E+02 0.10668332112E+02 0.11280051714E+02
 0.12095258869E+02 0.13073442823E+02 0.14074781158E+02 0.14861967789E+02 0.15173792115E+02
 0.14797417592E+02 0.13742915332E+02 0.12349842136E+02 0.11153307042E+02 0.72297314437E+01
 0.78142479959E+01 0.94354080509E+01 0.11472968992E+02 0.13194277915E+02 0.14068493140E+02
 0.13977380202E+02 0.13184451174E+02 0.12047588882E+02 0.10889056343E+02 0.99250691768E+01
 0.92420538695E+01 0.88350837700E+01 0.86569185279E+01 0.86574507662E+01 0.88126893445E+01
 0.91374693063E+01 0.96756256774E+01 0.10471510717E+02 0.11528046391E+02 0.12754016904E+02
 0.13924071562E+02 0.14705330208E+02 0.14732404099E+02 0.13742916726E+02 0.11873614691E+02
 0.96844203302E+01 0.79296381146E+01 0.36775722095E+01 0.44782702785E+01 0.66403098600E+01
 0.94364156797E+01 0.11962258805E+02 0.13497011649E+02 0.13793150646E+02 0.13111248739E+02
 0.11915719802E+02 0.10606928040E+02 0.94704875266E+01 0.86379493528E+01 0.81229488843E+01
 0.78780797866E+01 0.78457373410E+01 0.79983600002E+01 0.83562493517E+01 0.89729837807E+01
 0.98955351864E+01 0.11109847376E+02 0.12478764517E+02 0.13704083369E+02 0.14370817130E+02
 0.14004234133E+02 0.12349841702E+02 0.96844181707E+01 0.67671002058E+01 0.45251412688E+01
 0.10302346451E+01 0.19718103373E+01 0.44893162010E+01 0.77996406309E+01 0.10893697814E+02
 0.12920719214E+02 0.13534053839E+02 0.12973498800E+02 0.11774136268E+02 0.10395362273E+02
 0.91686130506E+01 0.82556286783E+01 0.76823426547E+01 0.74012990729E+01 0.73503018377E+01
 0.74997845517E+01 0.78735223307E+01 0.85308100095E+01 0.95193379356E+01 0.10812729280E+02
 0.12242485212E+02 0.13462637035E+02 0.13997844124E+02 0.13303805539E+02 0.11153300585E+02
 0.79296295859E+01 0.45251352460E+01 0.19692314435E+01 0.28465328382E+01 0.36817670171E+01
 0.59177359839E+01 0.88200415036E+01 0.11462948213E+02 0.13095033522E+02 0.13444259623E+02
 0.12766699520E+02 0.11546790259E+02 0.10198885784E+02 0.90202903569E+01 0.81505508220E+01
 0.76063485460E+01 0.73399182869E+01 0.72923984334E+01 0.74360823535E+01 0.77928097831E+01
 0.84183710468E+01 0.93605627504E+01 0.10602356489E+02 0.11998270112E+02 0.13238003145E+02
 0.13893156116E+02 0.13472533714E+02 0.11731631192E+02 0.89730438639E+01 0.59814175228E+01
 0.36982088221E+01 0.36817663282E+01 0.44675756420E+01 0.65697038141E+01 0.92786862663E+01
 0.11709870483E+02 0.13158955633E+02 0.13387891557E+02 0.12658332340E+02 0.11429953225E+02
 0.10097102741E+02 0.89411323614E+01 0.80913831230E+01 0.75603765529E+01 0.73003077135E+01
 0.72539223688E+01 0.73944061342E+01 0.77427134812E+01 0.83529973154E+01 0.92730469229E+01
 0.10490062301E+02 0.11869129951E+02 0.13116552649E+02 0.13824652568E+02 0.13527936846E+02
 0.11976051130E+02 0.94353775473E+01 0.66402787725E+01 0.44892921518E+01 0.59177415157E+01