   4   4   0   0
  0.1826828E+02  0.4180734E-09  0.4180734E-09  0.4180734E-09  0.5000000E-15
   1.0000000000000000E-004
  CAR 
 fccAl                                   
     12.39560814     -3.91588002  301      6.32678888      1.00000000
     -3.916  0.0000E+00  0.0000E+00
     -3.862  0.0000E+00  0.0000E+00
     -3.807  0.0000E+00  0.0000E+00
     -3.753  0.0000E+00  0.0000E+00
     -3.698  0.0000E+00  0.0000E+00
     -3.644  0.0000E+00  0.0000E+00
     -3.590  0.0000E+00  0.0000E+00
     -3.535  0.8775E-25  0.4771E-26
     -3.481  0.5895E-23  0.3253E-24
     -3.427  0.3444E-21  0.1905E-22
     -3.372  0.1727E-19  0.9583E-21
     -3.318  0.7434E-18  0.4138E-19
     -3.263  0.2744E-16  0.1533E-17
     -3.209  0.8678E-15  0.4872E-16
     -3.155  0.2351E-13  0.1327E-14
     -3.100  0.5450E-12  0.3096E-13
     -3.046  0.1082E-10  0.6195E-12
     -2.992  0.1832E-09  0.1058E-10
     -2.937  0.2645E-08  0.1544E-09
     -2.883  0.3249E-07  0.1921E-08
     -2.828  0.3391E-06  0.2036E-07
     -2.774  0.2997E-05  0.1833E-06
     -2.720  0.2234E-04  0.1398E-05
     -2.665  0.1398E-03  0.9002E-05
     -2.611  0.7295E-03  0.4866E-04
     -2.557  0.3137E-02  0.2192E-03
     -2.502  0.1093E-01  0.8136E-03
     -2.448  0.2989E-01  0.2439E-02
     -2.393  0.5970E-01  0.5685E-02
     -2.339  0.6825E-01  0.9396E-02
     -2.285 -0.3687E-01  0.7391E-02
     -2.230 -0.3620E+00 -0.1229E-01
     -2.176 -0.8109E+00 -0.5638E-01
     -2.122 -0.8060E+00 -0.1002E+00
     -2.067  0.5930E+00 -0.6796E-01
     -2.013  0.3821E+01  0.1398E+00
     -1.959  0.7815E+01  0.5647E+00
     -1.904  0.1029E+02  0.1124E+01
     -1.850  0.9553E+01  0.1643E+01
     -1.795  0.6130E+01  0.1977E+01
     -1.741  0.2229E+01  0.2098E+01
     -1.687 -0.2366E+00  0.2085E+01
     -1.632 -0.9226E+00  0.2035E+01
     -1.578 -0.6257E+00  0.2001E+01
     -1.524 -0.1922E+00  0.1990E+01
     -1.469  0.3064E-01  0.1992E+01
     -1.415  0.7161E-01  0.1996E+01
     -1.360  0.4638E-01  0.1998E+01
     -1.306  0.2000E-01  0.2000E+01
     -1.252  0.6550E-02  0.2000E+01
     -1.197  0.1712E-02  0.2000E+01
     -1.143  0.3655E-03  0.2000E+01
     -1.089  0.6470E-04  0.2000E+01
     -1.034  0.9576E-05  0.2000E+01
     -0.980  0.1193E-05  0.2000E+01
     -0.925  0.1256E-06  0.2000E+01
     -0.871  0.1121E-07  0.2000E+01
     -0.817  0.8507E-09  0.2000E+01
     -0.762  0.5500E-10  0.2000E+01
     -0.708  0.3038E-11  0.2000E+01
     -0.654  0.1429E-12  0.2000E+01
     -0.599  0.4084E-14  0.2000E+01
     -0.545  0.0000E+00  0.2000E+01
     -0.490  0.0000E+00  0.2000E+01
     -0.436  0.0000E+00  0.2000E+01
     -0.382  0.0000E+00  0.2000E+01
     -0.327  0.0000E+00  0.2000E+01
     -0.273  0.0000E+00  0.2000E+01
     -0.219  0.0000E+00  0.2000E+01
     -0.164  0.0000E+00  0.2000E+01
     -0.110  0.0000E+00  0.2000E+01
     -0.055  0.0000E+00  0.2000E+01
     -0.001  0.0000E+00  0.2000E+01
      0.053  0.0000E+00  0.2000E+01
      0.108  0.0000E+00  0.2000E+01
      0.162  0.0000E+00  0.2000E+01
      0.216  0.0000E+00  0.2000E+01
      0.271  0.0000E+00  0.2000E+01
      0.325  0.0000E+00  0.2000E+01
      0.379  0.0000E+00  0.2000E+01
      0.434  0.0000E+00  0.2000E+01
      0.488  0.0000E+00  0.2000E+01
      0.543  0.0000E+00  0.2000E+01
      0.597  0.5435E-25  0.2000E+01
      0.651  0.3860E-23  0.2000E+01
      0.706  0.2383E-21  0.2000E+01
      0.760  0.1263E-19  0.2000E+01
      0.814  0.5745E-18  0.2000E+01
      0.869  0.2242E-16  0.2000E+01
      0.923  0.7499E-15  0.2000E+01
      0.978  0.2149E-13  0.2000E+01
      1.032  0.5273E-12  0.2000E+01
      1.086  0.1108E-10  0.2000E+01
      1.141  0.1988E-09  0.2000E+01
      1.195  0.3041E-08  0.2000E+01
      1.249  0.3963E-07  0.2000E+01
      1.304  0.4390E-06  0.2000E+01
      1.358  0.4124E-05  0.2000E+01
      1.413  0.3273E-04  0.2000E+01
      1.467  0.2185E-03  0.2000E+01
      1.521  0.1220E-02  0.2000E+01
      1.576  0.5638E-02  0.2000E+01
      1.630  0.2128E-01  0.2002E+01
      1.684  0.6391E-01  0.2005E+01
      1.739  0.1452E+00  0.2013E+01
      1.793  0.2159E+00  0.2025E+01
      1.848  0.6881E-01  0.2028E+01
      1.902 -0.6447E+00  0.1993E+01
      1.956 -0.1966E+01  0.1886E+01
      2.011 -0.2754E+01  0.1737E+01
      2.065 -0.4057E+00  0.1715E+01
      2.119  0.7349E+01  0.2114E+01
      2.174  0.1917E+02  0.3156E+01
      2.228  0.2909E+02  0.4738E+01
      2.282  0.3064E+02  0.6404E+01
      2.337  0.2273E+02  0.7640E+01
      2.391  0.1072E+02  0.8223E+01
      2.446  0.1346E+01  0.8296E+01
      2.500 -0.2511E+01  0.8159E+01
      2.554 -0.2360E+01  0.8031E+01
      2.609 -0.1004E+01  0.7976E+01
      2.663 -0.7347E-01  0.7972E+01
      2.717  0.2092E+00  0.7984E+01
      2.772  0.1734E+00  0.7993E+01
      2.826  0.8481E-01  0.7998E+01
      2.881  0.3051E-01  0.7999E+01
      2.935  0.8637E-02  0.8000E+01
      2.989  0.1984E-02  0.8000E+01
      3.044  0.3760E-03  0.8000E+01
      3.098  0.5942E-04  0.8000E+01
      3.152  0.7886E-05  0.8000E+01
      3.207  0.8833E-06  0.8000E+01
      3.261  0.8382E-07  0.8000E+01
      3.316  0.6756E-08  0.8000E+01
      3.370  0.4635E-09  0.8000E+01
      3.424  0.2713E-10  0.8000E+01
      3.479  0.1356E-11  0.8000E+01
      3.533  0.5717E-13  0.8000E+01
      3.587  0.0000E+00  0.8000E+01
      3.642  0.0000E+00  0.8000E+01
      3.696  0.0000E+00  0.8000E+01
      3.751  0.0000E+00  0.8000E+01
      3.805  0.0000E+00  0.8000E+01
      3.859  0.0000E+00  0.8000E+01
      3.914  0.0000E+00  0.8000E+01
      3.968  0.0000E+00  0.8000E+01
      4.022  0.0000E+00  0.8000E+01
      4.077  0.0000E+00  0.8000E+01
      4.131  0.0000E+00  0.8000E+01
      4.185  0.0000E+00  0.8000E+01
      4.240  0.0000E+00  0.8000E+01
      4.294  0.0000E+00  0.8000E+01
      4.349  0.0000E+00  0.8000E+01
      4.403  0.0000E+00  0.8000E+01
      4.457  0.0000E+00  0.8000E+01
      4.512  0.0000E+00  0.8000E+01
      4.566  0.0000E+00  0.8000E+01
      4.620  0.0000E+00  0.8000E+01
      4.675  0.2622E-24  0.8000E+01
      4.729  0.1760E-22  0.8000E+01
      4.784  0.1027E-20  0.8000E+01
      4.838  0.5150E-19  0.8000E+01
      4.892  0.2215E-17  0.8000E+01
      4.947  0.8170E-16  0.8000E+01
      5.001  0.2583E-14  0.8000E+01
      5.055  0.6994E-13  0.8000E+01
      5.110  0.1623E-11  0.8000E+01
      5.164  0.3218E-10  0.8000E+01
      5.219  0.5447E-09  0.8000E+01
      5.273  0.7862E-08  0.8000E+01
      5.327  0.9659E-07  0.8000E+01
      5.382  0.1008E-05  0.8000E+01
      5.436  0.8909E-05  0.8000E+01
      5.490  0.6644E-04  0.8000E+01
      5.545  0.4160E-03  0.8000E+01
      5.599  0.2171E-02  0.8000E+01
      5.654  0.9342E-02  0.8001E+01
      5.708  0.3258E-01  0.8002E+01
      5.762  0.8916E-01  0.8007E+01
      5.817  0.1784E+00  0.8017E+01
      5.871  0.2049E+00  0.8028E+01
      5.925 -0.1072E+00  0.8022E+01
      5.980 -0.1077E+01  0.7964E+01
      6.034 -0.2423E+01  0.7832E+01
      6.088 -0.2424E+01  0.7700E+01
      6.143  0.1737E+01  0.7795E+01
      6.197  0.1138E+02  0.8413E+01
      6.252  0.2336E+02  0.9684E+01
      6.306  0.3082E+02  0.1136E+02
      6.360  0.2870E+02  0.1292E+02
      6.415  0.1847E+02  0.1392E+02
      6.469  0.6767E+01  0.1429E+02
      6.523 -0.6695E+00  0.1426E+02
      6.578 -0.2763E+01  0.1411E+02
      6.632 -0.1887E+01  0.1400E+02
      6.687 -0.5850E+00  0.1397E+02
      6.741  0.8871E-01  0.1398E+02
      6.795  0.2147E+00  0.1399E+02
      6.850  0.1398E+00  0.1400E+02
      6.904  0.6048E-01  0.1400E+02
      6.958  0.1986E-01  0.1400E+02
      7.013  0.5202E-02  0.1400E+02
      7.067  0.1113E-02  0.1400E+02
      7.122  0.1975E-03  0.1400E+02
      7.176  0.2930E-04  0.1400E+02
      7.230  0.3657E-05  0.1400E+02
      7.285  0.3858E-06  0.1400E+02
      7.339  0.3452E-07  0.1400E+02
      7.393  0.2626E-08  0.1400E+02
      7.448  0.1701E-09  0.1400E+02
      7.502  0.9412E-11  0.1400E+02
      7.557  0.4421E-12  0.1400E+02
      7.611  0.2042E-13  0.1400E+02
      7.665  0.0000E+00  0.1400E+02
      7.720  0.0000E+00  0.1400E+02
      7.774  0.0000E+00  0.1400E+02
      7.828  0.0000E+00  0.1400E+02
      7.883  0.0000E+00  0.1400E+02
      7.937  0.0000E+00  0.1400E+02
      7.992  0.0000E+00  0.1400E+02
      8.046  0.0000E+00  0.1400E+02
      8.100  0.0000E+00  0.1400E+02
      8.155  0.0000E+00  0.1400E+02
      8.209  0.0000E+00  0.1400E+02
      8.263  0.0000E+00  0.1400E+02
      8.318  0.0000E+00  0.1400E+02
      8.372  0.0000E+00  0.1400E+02
      8.426  0.0000E+00  0.1400E+02
      8.481  0.0000E+00  0.1400E+02
      8.535  0.0000E+00  0.1400E+02
      8.590  0.3635E-24  0.1400E+02
      8.644  0.2320E-22  0.1400E+02
      8.698  0.1288E-20  0.1400E+02
      8.753  0.6141E-19  0.1400E+02
      8.807  0.2511E-17  0.1400E+02
      8.861  0.8805E-16  0.1400E+02
      8.916  0.2645E-14  0.1400E+02
      8.970  0.6805E-13  0.1400E+02
      9.025  0.1500E-11  0.1400E+02
      9.079  0.2823E-10  0.1400E+02
      9.133  0.4532E-09  0.1400E+02
      9.188  0.6203E-08  0.1400E+02
      9.242  0.7220E-07  0.1400E+02
      9.296  0.7132E-06  0.1400E+02
      9.351  0.5960E-05  0.1400E+02
      9.405  0.4197E-04  0.1400E+02
      9.460  0.2476E-03  0.1400E+02
      9.514  0.1214E-02  0.1400E+02
      9.568  0.4892E-02  0.1400E+02
      9.623  0.1587E-01  0.1400E+02
      9.677  0.4000E-01  0.1400E+02
      9.731  0.7190E-01  0.1401E+02
      9.786  0.6638E-01  0.1401E+02
      9.840 -0.7528E-01  0.1401E+02
      9.895 -0.4172E+00  0.1398E+02
      9.949 -0.7597E+00  0.1394E+02
     10.003 -0.4944E+00  0.1392E+02
     10.058  0.1046E+01  0.1397E+02
     10.112  0.3848E+01  0.1418E+02
     10.166  0.7087E+01  0.1457E+02
     10.221  0.1017E+02  0.1512E+02
     10.275  0.1356E+02  0.1586E+02
     10.329  0.1759E+02  0.1681E+02
     10.384  0.2062E+02  0.1794E+02
     10.438  0.1978E+02  0.1901E+02
     10.493  0.1423E+02  0.1978E+02
     10.547  0.6628E+01  0.2014E+02
     10.601  0.7774E+00  0.2019E+02
     10.656 -0.1622E+01  0.2010E+02
     10.710 -0.1503E+01  0.2002E+02
     10.764 -0.6276E+00  0.1998E+02
     10.819 -0.3232E-01  0.1998E+02
     10.873  0.1441E+00  0.1999E+02
     10.928  0.1163E+00  0.2000E+02
     10.982  0.5643E-01  0.2000E+02
     11.036  0.2022E-01  0.2000E+02
     11.091  0.5711E-02  0.2000E+02
     11.145  0.1309E-02  0.2000E+02
     11.199  0.2477E-03  0.2000E+02
     11.254  0.3910E-04  0.2000E+02
     11.308  0.5182E-05  0.2000E+02
     11.363  0.5797E-06  0.2000E+02
     11.417  0.5493E-07  0.2000E+02
     11.471  0.4422E-08  0.2000E+02
     11.526  0.3030E-09  0.2000E+02
     11.580  0.1770E-10  0.2000E+02
     11.634  0.8790E-12  0.2000E+02
     11.689  0.4186E-13  0.2000E+02
     11.743  0.0000E+00  0.2000E+02
     11.798  0.0000E+00  0.2000E+02
     11.852  0.0000E+00  0.2000E+02
     11.906  0.0000E+00  0.2000E+02
     11.961  0.0000E+00  0.2000E+02
     12.015  0.0000E+00  0.2000E+02
     12.069  0.0000E+00  0.2000E+02
     12.124  0.0000E+00  0.2000E+02
     12.178  0.0000E+00  0.2000E+02
     12.232  0.0000E+00  0.2000E+02
     12.287  0.0000E+00  0.2000E+02
     12.341  0.0000E+00  0.2000E+02
     12.396  0.0000E+00  0.2000E+02
