    4    4    1    1
  0.1826828E+02  0.4180734E-09  0.4180734E-09  0.4180734E-09  0.5000000E-15
   1.0000000000000000E-004
  CAR 
 fccAl                                   
   12    4   10

  0.2500000E+00  0.2500000E+00  0.2500000E+00  0.2500000E+00
   1       -1.9159
   2        2.2334
   3        2.2379
   4        2.2379
   5        6.2906
   6        6.2966
   7        6.2966
   8       10.1909
   9       10.3911
  10       10.3912

 -0.2500000E+00  0.2500000E+00  0.2500000E+00  0.2500000E+00
   1       -1.9159
   2        2.2333
   3        2.2379
   4        2.2380
   5        6.2905
   6        6.2966
   7        6.2967
   8       10.1909
   9       10.3912
  10       10.3918

  0.2500000E+00 -0.2500000E+00  0.2500000E+00  0.2500000E+00
   1       -1.9159
   2        2.2333
   3        2.2379
   4        2.2380
   5        6.2905
   6        6.2966
   7        6.2967
   8       10.1909
   9       10.3911
  10       10.3912

 -0.2500000E+00 -0.2500000E+00  0.2500000E+00  0.2500000E+00
   1       -1.9159
   2        2.2333
   3        2.2379
   4        2.2380
   5        6.2905
   6        6.2966
   7        6.2967
   8       10.1909
   9       10.3911
  10       10.3956
