       N       E                     dE             d eps       ncg     rms          rms(c)
DAV:   1    -0.424154809399E+01   -0.42415E+01   -0.21021E+03    80   0.333E+02

DAV:   2    -0.137947157281E+02   -0.95532E+01   -0.94044E+01   110   0.538E+01

DAV:   3    -0.140320715152E+02   -0.23736E+00   -0.20691E+00    88   0.681E+00

DAV:   4    -0.140328157501E+02   -0.74423E-03   -0.74395E-03   160   0.490E-01

DAV:   5    -0.140328157613E+02   -0.11207E-07   -0.10029E-07    92   0.126E-03    0.179E+00
DAV:   6    -0.139763036619E+02    0.56512E-01   -0.27517E-02   142   0.807E-01    0.110E+00
DAV:   7    -0.139403811073E+02    0.35923E-01   -0.34417E-02    84   0.956E-01    0.128E-01
DAV:   8    -0.139395114818E+02    0.86963E-03   -0.15653E-03   158   0.239E-01    0.355E-02
DAV:   9    -0.139394262270E+02    0.85255E-04   -0.40099E-04    86   0.914E-02    0.103E-02
DAV:  10    -0.139394310511E+02   -0.48242E-05   -0.20640E-05    92   0.288E-02

   1 F= -.13939431E+02 E0= -.13911704E+02  d E =-.110908E+00

